/*--------------------------------*- C++ -*----------------------------------*\
| =========                 |                                                 |
| \\      /  F ield         | OpenFOAM: The Open Source CFD Toolbox           |
|  \\    /   O peration     | Version:                                        |
|   \\  /    A nd           | Website:  www.openfoam.com                      |
|    \\/     M anipulation  |                                                 |
\*---------------------------------------------------------------------------*/
FoamFile
{
    version     2.0;
    format      ascii;
    class       volScalarField;
    location    "0.05";
    object      p;
}
// * * * * * * * * * * * * * * * * * * * * * * * * * * * * * * * * * * * * * //

dimensions      [0 2 -2 0 0 0 0];


internalField   nonuniform List<scalar> 
125000
(
0.000432554
0.000802762
0.000844646
0.00075849
0.000595978
0.000376639
0.000117754
-0.000164809
-0.000456189
-0.000742602
-0.0010113
-0.00125047
-0.00144938
-0.00159826
-0.00168831
-0.00171165
-0.00166128
-0.00153107
-0.00131571
-0.00101061
-0.000612086
-0.00011695
0.000477273
0.0011724
0.00196962
0.00286964
0.00387258
0.00497804
0.00618515
0.00749259
0.00889863
0.0104011
0.0119976
0.0136852
0.0154607
0.0173205
0.019261
0.0212779
0.0233668
0.0255232
0.0277422
0.0300186
0.0323473
0.0347227
0.0371392
0.0395913
0.0420729
0.0445782
0.047101
0.0496352
0.000792498
0.000889922
0.000878196
0.00077759
0.000606769
0.000381857
0.000119032
-0.000166152
-0.000459018
-0.00074599
-0.00101458
-0.00125276
-0.00145024
-0.00159734
-0.00168538
-0.00170654
-0.00165393
-0.00152149
-0.00130396
-0.000996829
-0.000596326
-9.93567e-05
0.000496519
0.00119311
0.00199162
0.00289269
0.00389644
0.00500245
0.00620987
0.00751738
0.00892324
0.0104253
0.0120212
0.0137079
0.0154824
0.017341
0.01928
0.0212953
0.0233825
0.0255369
0.0277538
0.0300281
0.0323544
0.0347275
0.0371417
0.0395912
0.0420702
0.0445728
0.047093
0.0496245
0.000877489
0.000924325
0.000887511
0.000766334
0.000575327
0.000330117
4.73589e-05
-0.000256874
-0.000567487
-0.000870668
-0.0011537
-0.0014049
-0.00161373
-0.00177063
-0.00186698
-0.00189509
-0.00184815
-0.0017202
-0.00150607
-0.00120132
-0.00080225
-0.000305845
0.000290273
0.000987853
0.00178805
0.00269144
0.0036981
0.00480757
0.00601895
0.00733088
0.0087416
0.010249
0.0118504
0.0135432
0.0153239
0.0171892
0.0191351
0.0211575
0.0232521
0.0254142
0.0276389
0.0299212
0.0322558
0.0346372
0.0370598
0.0395179
0.0420057
0.0445171
0.0470462
0.0495867
0.000894154
0.000928852
0.000872458
0.000726168
0.000506717
0.000231182
-8.24748e-05
-0.000417084
-0.000756867
-0.00108747
-0.00139583
-0.00167015
-0.00189981
-0.00207523
-0.00218782
-0.00222996
-0.00219494
-0.00207688
-0.00187069
-0.00157204
-0.00117732
-0.000683608
-8.86069e-05
0.000609344
0.00141131
0.0023178
0.00332881
0.00444381
0.00566182
0.00698143
0.00840082
0.00991777
0.0115297
0.0132337
0.0150265
0.0169045
0.0188639
0.0209003
0.0230095
0.0251868
0.0274271
0.0297255
0.0320765
0.0344748
0.0369147
0.0393903
0.0418958
0.0444251
0.0469723
0.049531
0.000893574
0.000920332
0.000843683
0.00066867
0.000415224
0.000102666
-0.000249241
-0.000621978
-0.000998801
-0.00136463
-0.00170599
-0.00201079
-0.00226825
-0.00246868
-0.00260351
-0.00266515
-0.00264694
-0.00254306
-0.00234851
-0.00205907
-0.00167122
-0.00118213
-0.000589604
0.000107917
0.0009114
0.00182126
0.0028374
0.0039592
0.0051856
0.0065151
0.00794578
0.00947538
0.0111012
0.0128203
0.0146293
0.0165246
0.0185021
0.0205577
0.0226869
0.0248849
0.0271467
0.0294672
0.031841
0.0342626
0.0367262
0.0392259
0.041756
0.0443101
0.0468823
0.0494664
0.000888903
0.000908722
0.000810928
0.000604628
0.000313393
-4.08097e-05
-0.0004362
-0.000852679
-0.00127235
-0.00167931
-0.00205953
-0.00240054
-0.0026913
-0.00292199
-0.00308397
-0.00316963
-0.00317234
-0.00308632
-0.00290666
-0.00262922
-0.00225057
-0.00176797
-0.00117933
-0.000483209
0.000321264
0.0012344
0.002256
0.00338534
0.00462124
0.00596212
0.00740597
0.00895042
0.0105927
0.0123297
0.0141581
0.016074
0.0180735
0.0201522
0.0223055
0.0245286
0.0268165
0.0291639
0.0315654
0.0340153
0.0365078
0.039037
0.0415969
0.0441813
0.0467841
0.049399
0.000887707
0.00090125
0.000782042
0.000543075
0.000211801
-0.000187006
-0.000629349
-0.00109342
-0.00156003
-0.0020124
-0.00243583
-0.00281738
-0.00314567
-0.0034107
-0.00360371
-0.00371705
-0.00374404
-0.00367897
-0.00351695
-0.00325393
-0.00288656
-0.00241218
-0.00182883
-0.00113515
-0.000330378
0.000585684
0.00161271
0.00274988
0.0039959
0.00534908
0.0068073
0.00836808
0.0100286
0.0117855
0.0136355
0.0155746
0.0175987
0.0197033
0.0218839
0.0241354
0.0264528
0.0288307
0.0312635
0.0337455
0.0362709
0.0388336
0.0414274
0.0440463
0.0466838
0.0493336
0.000894625
0.000902823
0.000762614
0.000490682
0.000118412
-0.000326524
-0.000817818
-0.00133186
-0.00184813
-0.00234884
-0.00281853
-0.00324374
-0.0036127
-0.00391518
-0.00414224
-0.00428611
-0.00434009
-0.00429847
-0.0041564
-0.00390987
-0.00355559
-0.00309101
-0.00251425
-0.00182407
-0.0010198
-0.000101361
0.00093081
0.00207577
0.00333211
0.00469803
0.0061713
0.00774931
0.00942909
0.0112073
0.0130804
0.0150443
0.0170949
0.0192276
0.0214375
0.0237198
0.0260691
0.02848
0.0309468
0.0334637
0.0360248
0.0386238
0.0412546
0.0439108
0.0465862
0.0492741
0.000912783
0.000916733
0.000756508
0.000452153
3.89988e-05
-0.00045247
-0.000993552
-0.00155882
-0.00212632
-0.0026772
-0.00319518
-0.00366619
-0.00407808
-0.00442027
-0.00468362
-0.00486023
-0.00494334
-0.00492719
-0.00480695
-0.00457864
-0.00423904
-0.00378566
-0.00321673
-0.00253109
-0.00172817
-0.000808014
0.000228825
0.00138129
0.00264786
0.00402661
0.00551518
0.00711085
0.00881052
0.0106108
0.0125079
0.0144977
0.0165759
0.0187379
0.0209787
0.0232932
0.0256761
0.0281217
0.0306244
0.0331781
0.0357767
0.0384141
0.0410839
0.0437796
0.0464948
0.0492229
0.000944219
0.000945063
0.000766231
0.000430706
-2.24861e-05
-0.000560014
-0.00115084
-0.00176767
-0.00238706
-0.00298902
-0.00355645
-0.00407463
-0.00453092
-0.0049144
-0.00521567
-0.00542666
-0.00554052
-0.00555143
-0.00545455
-0.0052459
-0.00492231
-0.00448139
-0.00392141
-0.0032413
-0.0024406
-0.00151946
-0.000478557
0.000680948
0.00195742
0.0033488
0.00485262
0.00646601
0.00818577
0.0100084
0.0119299
0.0139461
0.0160526
0.0182446
0.0205171
0.0228648
0.0252822
0.0277636
0.0303032
0.0328948
0.0355323
0.0382093
0.0409194
0.0436559
0.0464123
0.0491819
0.000990259
0.000989127
0.000793311
0.000428283
-6.34952e-05
-0.000645971
-0.00128579
-0.00195377
-0.00262494
-0.00327821
-0.00389555
-0.00446159
-0.00496313
-0.00538888
-0.00572915
-0.00597568
-0.00612148
-0.00616065
-0.00608831
-0.00590049
-0.00559407
-0.00516667
-0.00461664
-0.003943
-0.00314538
-0.00222404
-0.00117975
-1.37932e-05
0.00127208
0.00267569
0.00419444
0.00582534
0.00756506
0.00940992
0.0113559
0.0133987
0.0155337
0.017756
0.0200604
0.0224417
0.0248941
0.0274118
0.0299889
0.0326191
0.035296
0.0380133
0.0407643
0.0435423
0.0463406
0.0491525
0.00105169
0.00104963
0.000838565
0.000445949
-8.25868e-05
-0.000708419
-0.00139592
-0.00211405
-0.00283635
-0.00354054
-0.0042077
-0.00482171
-0.00536883
-0.00583733
-0.00621723
-0.00650003
-0.00667858
-0.00674687
-0.00669997
-0.00653391
-0.00624557
-0.00583261
-0.00529344
-0.00462713
-0.00383342
-0.00291266
-0.00186572
-0.00069398
0.000600683
0.00201596
0.00354914
0.00519711
0.00695641
0.00882323
0.0107934
0.0128626
0.0150259
0.0172783
0.0196147
0.0220295
0.024517
0.0270711
0.0296857
0.0323546
0.0350711
0.0378289
0.040621
0.0434407
0.0462811
0.0491354
0.00112891
0.00112684
0.000902249
0.000484085
-7.91209e-05
-0.000746366
-0.00147984
-0.00224671
-0.00301901
-0.0037733
-0.00448969
-0.00515132
-0.00574389
-0.00625522
-0.00667497
-0.00699441
-0.00720618
-0.00730416
-0.00728335
-0.00713976
-0.00687024
-0.00647248
-0.00594493
-0.00528675
-0.00449774
-0.00357833
-0.00252948
-0.00135269
-4.99411e-05
0.00137634
0.00292331
0.00458775
0.00636606
0.0082543
0.0102482
0.0123432
0.0145344
0.0168167
0.0191846
0.0216326
0.0241548
0.0267449
0.0293969
0.0321041
0.0348601
0.037658
0.040491
0.0433522
0.0462345
0.049131
0.00122195
0.00122065
0.00098418
0.000542548
-5.30639e-05
-0.00075956
-0.00153705
-0.00235091
-0.00317173
-0.00397489
-0.00473956
-0.00544811
-0.00608564
-0.00663951
-0.00709902
-0.00745514
-0.0077003
-0.00782828
-0.00783399
-0.00771334
-0.0074632
-0.00708127
-0.00656602
-0.00591667
-0.00513308
-0.00421576
-0.00316575
-0.00198466
-0.000674584
0.00076195
0.00232198
0.00400216
0.00579877
0.00770773
0.00972466
0.0118448
0.0140633
0.0163747
0.0187736
0.0212542
0.0238104
0.0264361
0.0291248
0.0318699
0.0346646
0.0375022
0.0403756
0.0432777
0.0462014
0.0491395
0.00133054
0.00133067
0.00108391
0.0006209
-4.84394e-06
-0.000748319
-0.00156767
-0.00242654
-0.00329415
-0.00414468
-0.00495635
-0.00571081
-0.00639252
-0.00698835
-0.00748721
-0.00787978
-0.0081583
-0.00831636
-0.00834877
-0.00825139
-0.00802103
-0.0076554
-0.00715302
-0.00651311
-0.00573561
-0.00482107
-0.00377064
-0.00258601
-0.00126938
0.000176613
0.0017489
0.00344401
0.00525809
0.00718695
0.00922607
0.0113706
0.0136155
0.0159553
0.0183843
0.0208966
0.0234862
0.0261465
0.0288711
0.0316532
0.034486
0.0373624
0.0402753
0.0432175
0.0461817
0.0491607
0.0014542
0.0014563
0.00120073
0.000718548
6.47514e-05
-0.000713393
-0.00157232
-0.00247408
-0.00338653
-0.00428271
-0.00513992
-0.00593902
-0.00666387
-0.00730083
-0.00783842
-0.008267
-0.0085786
-0.00876663
-0.00882576
-0.00875177
-0.00854145
-0.0081925
-0.00770342
-0.00707348
-0.00630265
-0.00539155
-0.0043414
-0.00315398
-0.00183159
-0.000376947
0.00120675
0.00291591
0.00474656
0.0066944
0.00875479
0.0109228
0.0131931
0.0155603
0.0180184
0.0205616
0.0231834
0.0258774
0.0286369
0.031455
0.0343248
0.0372391
0.0401905
0.0431718
0.0461755
0.0491943
0.00159225
0.00159676
0.00133369
0.000834136
0.000154627
-0.000655829
-0.00155201
-0.00249443
-0.00344965
-0.00438961
-0.0052907
-0.006133
-0.00689975
-0.00757681
-0.00815229
-0.00861627
-0.00896048
-0.00917818
-0.00926388
-0.00921329
-0.00902314
-0.0086911
-0.00821567
-0.00759613
-0.00683249
-0.00592542
-0.00487622
-0.00368674
-0.00235936
-0.000896902
0.000697327
0.00241962
0.00426591
0.00623176
0.00831241
0.0105028
0.0127976
0.015191
0.0176772
0.0202501
0.0229031
0.0256296
0.0284229
0.0312759
0.0341815
0.0371324
0.0401212
0.0431403
0.0461824
0.0492397
0.00174383
0.00175108
0.00148173
0.000966577
0.000263535
-0.000576919
-0.00150801
-0.00248883
-0.00348469
-0.00446645
-0.00540961
-0.00629351
-0.00710077
-0.00781675
-0.00842916
-0.00892773
-0.00930395
-0.00955085
-0.00966284
-0.00963552
-0.00946554
-0.00915054
-0.00868901
-0.00808022
-0.00732422
-0.00642173
-0.0053741
-0.00418324
-0.00285162
-0.00138217
0.00022171
0.00195621
0.00381715
0.00579999
0.00789986
0.0101116
0.0124296
0.0148482
0.0173614
0.0199627
0.0226456
0.0254034
0.0282292
0.0311158
0.034056
0.0370422
0.040067
0.0431228
0.0462018
0.0492964
0.00190797
0.00191821
0.00164366
0.00111461
0.000390079
-0.000478132
-0.00144184
-0.00245878
-0.00349308
-0.0045146
-0.00549794
-0.00642175
-0.00726801
-0.00802161
-0.00866983
-0.00920207
-0.00960954
-0.00988509
-0.010023
-0.0100187
-0.00986875
-0.00957082
-0.00912332
-0.00852556
-0.00777758
-0.00688014
-0.00583464
-0.00464306
-0.00330794
-0.0018323
-0.000219636
0.00152614
0.00340075
0.00539955
0.00751755
0.00974946
0.0120897
0.0145322
0.017071
0.0196995
0.0224111
0.0251989
0.0280559
0.0309748
0.0339481
0.0369683
0.0400277
0.0431185
0.0462331
0.0493635
0.00208359
0.00209701
0.00181823
0.00127684
0.000532758
-0.000361058
-0.00135512
-0.00240592
-0.00347648
-0.00453566
-0.00555726
-0.0065192
-0.00740289
-0.00819271
-0.00887552
-0.00944038
-0.00987826
-0.0101818
-0.010345
-0.0103634
-0.0102334
-0.00995242
-0.00951903
-0.00893248
-0.00819283
-0.00730085
-0.006258
-0.0050663
-0.00372838
-0.00224733
-0.000626738
0.00112939
0.00301669
0.0050304
0.00716545
0.00941641
0.0117776
0.0142428
0.016806
0.0194604
0.0221994
0.0250158
0.0279026
0.0308522
0.0338572
0.0369099
0.0400025
0.043127
0.0462756
0.0494403
0.00226952
0.00228625
0.0020041
0.0014518
0.000689997
-0.000227365
-0.00124961
-0.00233205
-0.00343668
-0.00453144
-0.00558933
-0.00658761
-0.00750709
-0.00833165
-0.00904775
-0.00964413
-0.0101115
-0.0104422
-0.0106302
-0.0106708
-0.0105603
-0.0102963
-0.00987698
-0.00930176
-0.00857067
-0.00768451
-0.00664476
-0.00545351
-0.00411344
-0.00262773
-0.00100004
0.000765551
0.00266457
0.00469217
0.00684317
0.00911204
0.0114929
0.0139797
0.0165659
0.0192449
0.0220098
0.0248535
0.0277686
0.0307476
0.0337829
0.0368666
0.0399907
0.0431474
0.0463284
0.0495259
0.00246456
0.00248466
0.00219991
0.00163801
0.00086018
-7.8767e-05
-0.00112708
-0.00223902
-0.00337559
-0.00450387
-0.0055961
-0.00662888
-0.00758246
-0.00844024
-0.00918829
-0.00981502
-0.0103108
-0.0106679
-0.0108801
-0.0109423
-0.0108511
-0.0106036
-0.0101983
-0.00963451
-0.00891215
-0.0080321
-0.00699585
-0.00580556
-0.00446396
-0.0029743
-0.0013403
0.000433875
0.00234367
0.00438415
0.00655003
0.00883566
0.0112351
0.0137421
0.0163501
0.0190523
0.0218418
0.0247113
0.0276533
0.0306603
0.0337242
0.0368374
0.0399916
0.0431788
0.0463907
0.0496193
0.00266744
0.00269095
0.00240425
0.00183396
0.00104168
8.29967e-05
-0.000989392
-0.00212876
-0.00329519
-0.00445496
-0.00557959
-0.00664503
-0.00763101
-0.00852048
-0.0092991
-0.00995496
-0.0104782
-0.0108607
-0.0110962
-0.0111796
-0.0111071
-0.010876
-0.0104846
-0.00993212
-0.00921861
-0.00834489
-0.0073125
-0.00612364
-0.00478108
-0.00328812
-0.00164856
0.00013337
0.00205304
0.00410541
0.0062851
0.00858636
0.0110031
0.0135291
0.0161576
0.0188818
0.0216945
0.0245884
0.0275559
0.0305892
0.0336804
0.0368214
0.0400042
0.0432203
0.0464615
0.0497197
0.00287688
0.00290378
0.00261571
0.00203811
0.00123287
0.000256167
-0.0008384
-0.0020032
-0.00319749
-0.00438677
-0.00554187
-0.00663816
-0.00765487
-0.00857447
-0.00938226
-0.010066
-0.0106155
-0.0110226
-0.0112806
-0.0113845
-0.0113302
-0.0111151
-0.0107374
-0.0101962
-0.00949158
-0.00862438
-0.00759616
-0.00640914
-0.00506613
-0.0035705
-0.00192608
-0.000137177
0.00179148
0.00385479
0.00604725
0.00836305
0.010796
0.0133398
0.0159875
0.0187323
0.0215669
0.0244837
0.0274752
0.0305334
0.0336504
0.0368178
0.0400275
0.043271
0.0465399
0.049826
0.00309156
0.00312183
0.00283289
0.00224898
0.00143209
0.000438992
-0.000675956
-0.0018643
-0.00308451
-0.00430137
-0.00548508
-0.00661045
-0.00765621
-0.0086044
-0.00943993
-0.0101502
-0.0107249
-0.0111555
-0.0114353
-0.011559
-0.0115224
-0.0113229
-0.0109586
-0.0104285
-0.0097328
-0.00887225
-0.00784845
-0.00666363
-0.00532064
-0.00382289
-0.00217426
-0.000379149
0.00155766
0.00363098
0.00583523
0.0081645
0.0106126
0.0131729
0.0158386
0.0186027
0.0214578
0.0243962
0.0274103
0.030492
0.0336331
0.0368254
0.0400605
0.0433298
0.0466249
0.0499373
0.00331017
0.00334374
0.00305437
0.00246502
0.00163773
0.000629747
-0.00050389
-0.00171397
-0.00295825
-0.00420085
-0.00541137
-0.00656409
-0.00763724
-0.00861246
-0.00947431
-0.0102099
-0.0108086
-0.0112618
-0.0115624
-0.0117051
-0.0116857
-0.0115013
-0.01115
-0.010631
-0.00994413
-0.00909032
-0.00807113
-0.00688882
-0.00554626
-0.0040469
-0.00239468
-0.000594062
0.0013501
0.00343255
0.00564762
0.00798935
0.0104514
0.0130271
0.0157097
0.0184918
0.0213661
0.0243248
0.02736
0.0304637
0.0336276
0.0368433
0.0401022
0.0433958
0.0467155
0.0500527
0.00353142
0.0035682
0.00327876
0.00268477
0.00184821
0.000826745
-0.000323999
-0.00155412
-0.00282072
-0.00408729
-0.00532287
-0.00650122
-0.00760014
-0.00860088
-0.00948763
-0.0102472
-0.0108688
-0.0113435
-0.0116641
-0.0118251
-0.0118222
-0.0116525
-0.0113139
-0.0108056
-0.0101275
-0.00928048
-0.00826605
-0.0070865
-0.00574473
-0.00424422
-0.00258899
-0.000783525
0.00116724
0.00325797
0.00548297
0.00783616
0.0103111
0.0129012
0.0155994
0.0183983
0.0212904
0.0242681
0.0273231
0.0304474
0.0336326
0.0368702
0.0401516
0.043468
0.0468108
0.0501712
0.00375398
0.00379389
0.00350469
0.00290676
0.00206196
0.00102832
-0.000138057
-0.00138663
-0.00267388
-0.00396271
-0.00522165
-0.00642399
-0.00754711
-0.00857186
-0.00948213
-0.0102645
-0.0109078
-0.0114029
-0.0117426
-0.0119211
-0.0119341
-0.0117785
-0.0114522
-0.0109544
-0.010285
-0.00944471
-0.00843512
-0.00725853
-0.00591787
-0.00441664
-0.00275891
-0.000949225
0.00100743
0.00310567
0.00533972
0.00770345
0.0101904
0.0127937
0.0155063
0.0183208
0.0212297
0.0242249
0.0272985
0.030442
0.0336472
0.0369053
0.0402076
0.0435453
0.0469096
0.0502918
0.00397658
0.00401951
0.00373082
0.00312957
0.00227744
0.00123283
5.22072e-05
-0.00121331
-0.00251961
-0.00382909
-0.00510977
-0.00633451
-0.00748028
-0.00852759
-0.00946001
-0.0102638
-0.0109276
-0.0114422
-0.0118
-0.0119952
-0.0120235
-0.0118815
-0.0115672
-0.0110796
-0.0104186
-0.00958498
-0.00858029
-0.00740682
-0.00606753
-0.00456597
-0.00290622
-0.00109288
0.000869007
0.00297402
0.00521631
0.00758967
0.0100876
0.0127031
0.0154291
0.0182581
0.0211824
0.024194
0.0272848
0.0304463
0.03367
0.0369472
0.0402691
0.0436267
0.0470112
0.0504137
0.00419799
0.00424382
0.00395583
0.00335184
0.00249336
0.00143876
0.000245151
-0.00103588
-0.00235974
-0.00368832
-0.0049892
-0.0062348
-0.00740174
-0.00847018
-0.00942342
-0.0102474
-0.0109307
-0.0114636
-0.0118386
-0.0120498
-0.0120926
-0.0119636
-0.0116608
-0.0111831
-0.0105303
-0.00970328
-0.0087035
-0.00753328
-0.0061956
-0.00469403
-0.0030327
-0.00121624
0.000750283
0.00286137
0.00511113
0.0074933
0.0100012
0.012628
0.0153664
0.0182087
0.0211474
0.0241742
0.027281
0.0304591
0.0337001
0.0369951
0.0403352
0.0437113
0.0471146
0.050536
0.00441698
0.00446558
0.00417848
0.00357223
0.00270813
0.00164459
0.000439195
-0.000856034
-0.00219604
-0.00354226
-0.00486184
-0.00612685
-0.00731351
-0.00840171
-0.00937444
-0.0102175
-0.0109189
-0.0114693
-0.0118606
-0.0120869
-0.0121435
-0.012027
-0.0117352
-0.011267
-0.0106222
-0.00980161
-0.00880671
-0.00763982
-0.00630395
-0.00480266
-0.00314013
-0.00132101
0.000649578
0.0027661
0.00502261
0.00741278
0.0099299
0.012567
0.0153167
0.0181714
0.0211233
0.0241642
0.0272857
0.0304794
0.0337364
0.0370479
0.0404048
0.0437981
0.0472188
0.0506578
0.00463239
0.00468363
0.00439753
0.00378946
0.0029204
0.00184888
0.000632817
-0.000675374
-0.0020302
-0.00339267
-0.00472955
-0.00601254
-0.00721755
-0.00832416
-0.00931511
-0.0101759
-0.0108946
-0.0114613
-0.011868
-0.0121086
-0.0121783
-0.0120737
-0.0117924
-0.0113333
-0.0106963
-0.00988193
-0.00889185
-0.00772835
-0.00639442
-0.00489368
-0.00323028
-0.00140893
0.00056522
0.00268659
0.00494917
0.00734658
0.00987208
0.0125186
0.0152787
0.0181448
0.0211088
0.0241627
0.0272979
0.0305058
0.0337776
0.0371044
0.040477
0.0438863
0.0473231
0.0507784
0.00484309
0.00489683
0.00461185
0.00400232
0.00312893
0.00205029
0.000824564
-0.000495436
-0.00186383
-0.00324124
-0.00459407
-0.00589369
-0.00711571
-0.00823945
-0.00924739
-0.0101248
-0.0108596
-0.0114416
-0.0118629
-0.012117
-0.0121991
-0.0121057
-0.0118344
-0.0113841
-0.0107544
-0.00994615
-0.00896081
-0.00780071
-0.00646884
-0.00496883
-0.00330486
-0.00148167
0.000495572
0.00262123
0.00488925
0.00729322
0.00982632
0.0124814
0.0152511
0.0181275
0.0211028
0.0241686
0.0273164
0.0305375
0.033823
0.0371638
0.0405508
0.0439748
0.0474265
0.0508969
0.00504801
0.00510412
0.00482032
0.00420967
0.0033325
0.0022475
0.00101306
-0.000317666
-0.00169845
-0.00308956
-0.00445706
-0.00577203
-0.0070098
-0.00814942
-0.00917316
-0.0100661
-0.0108159
-0.0114123
-0.0118471
-0.0121139
-0.0122077
-0.0121249
-0.0118632
-0.0114211
-0.0107985
-0.00999613
-0.00901541
-0.00785868
-0.00652895
-0.00502984
-0.00336556
-0.00154086
0.000439042
0.00256848
0.00484137
0.00725123
0.00979121
0.0124541
0.0152325
0.0181185
0.021104
0.0241807
0.02734
0.0305732
0.0338713
0.0372251
0.0406254
0.044063
0.0475284
0.0510126
0.00524615
0.00530448
0.0050219
0.00441039
0.00352995
0.00243929
0.00119701
-0.000143439
-0.00153551
-0.00293915
-0.00432012
-0.00564921
-0.00690151
-0.00805582
-0.00909419
-0.0100015
-0.0107652
-0.011375
-0.0118226
-0.0121013
-0.0122061
-0.0121333
-0.0118804
-0.0114463
-0.0108304
-0.0100337
-0.00905741
-0.007904
-0.00657643
-0.00507835
-0.00341398
-0.00158808
0.000394092
0.00252684
0.00480406
0.00721921
0.00976541
0.0124354
0.0152217
0.0181163
0.0211112
0.0241979
0.0273678
0.0306121
0.0339217
0.0372874
0.0406999
0.0441499
0.047628
0.0511249
0.00543651
0.00549693
0.00521558
0.00460344
0.00372018
0.0026245
0.00137519
2.59448e-05
-0.00137638
-0.00279145
-0.00418475
-0.0055268
-0.00679245
-0.00796029
-0.00901216
-0.0099328
-0.0107095
-0.0113317
-0.0117911
-0.0120808
-0.0121959
-0.0121324
-0.011888
-0.0114613
-0.0108519
-0.0100604
-0.00908848
-0.0079383
-0.00661291
-0.00511596
-0.00345167
-0.00162485
0.000359248
0.00249489
0.00477594
0.00719582
0.0097476
0.012424
0.0152174
0.0181199
0.0211233
0.0242192
0.0273987
0.0306531
0.0339732
0.0373498
0.0407735
0.0442349
0.0477245
0.0512331
0.00561819
0.00568053
0.00540042
0.00478784
0.00390216
0.00280204
0.00154643
0.000189262
-0.00122236
-0.00264782
-0.00405235
-0.00540625
-0.00668412
-0.00786437
-0.00892865
-0.00986153
-0.0106501
-0.0112839
-0.0117542
-0.0120543
-0.0121789
-0.0121242
-0.0118876
-0.0114678
-0.0108644
-0.0100781
-0.0091102
-0.00796316
-0.00663993
-0.00514416
-0.00348012
-0.0016526
0.000333109
0.00247126
0.00475569
0.00717978
0.00973658
0.0124187
0.0152186
0.0181283
0.0211394
0.0242435
0.0274318
0.0306953
0.034025
0.0374115
0.0408454
0.0443172
0.0478174
0.0513366
0.00579031
0.00585444
0.00557553
0.00496269
0.00407493
0.0029709
0.00170967
0.000345382
-0.00107462
-0.00250949
-0.00392422
-0.00528889
-0.0065779
-0.00776948
-0.0088451
-0.00978921
-0.0105888
-0.0112331
-0.0117135
-0.0120231
-0.0121566
-0.01211
-0.0118808
-0.0114674
-0.0108697
-0.0100881
-0.00912408
-0.00798003
-0.00665891
-0.00516439
-0.00350071
-0.00167269
0.000314359
0.00245468
0.00474207
0.0071699
0.00973116
0.0124185
0.0152242
0.0181402
0.0211583
0.0242699
0.0274661
0.030738
0.0340764
0.0374719
0.040915
0.0443962
0.0479059
0.0514348
0.00595209
0.00601786
0.00574013
0.00512713
0.0042376
0.00313014
0.00186392
0.000493274
-0.00093425
-0.00237759
-0.00380154
-0.00517596
-0.00647508
-0.00767694
-0.00876289
-0.00971723
-0.0105268
-0.0111809
-0.0116706
-0.0119889
-0.0121305
-0.0120914
-0.0118689
-0.0114616
-0.010869
-0.0100918
-0.00913151
-0.0079903
-0.00667123
-0.00517795
-0.00351473
-0.00168638
0.000301773
0.00244395
0.00473393
0.00716505
0.00973027
0.0124222
0.0152331
0.0181549
0.0211792
0.0242975
0.0275009
0.0307803
0.0341265
0.0375301
0.0409816
0.0444713
0.0479896
0.0515272
0.0061028
0.00617007
0.00589344
0.0052804
0.00438937
0.00327891
0.00200829
0.000631995
-0.000802246
-0.00225318
-0.00368541
-0.0050686
-0.00637682
-0.00758797
-0.00868328
-0.0096469
-0.0104656
-0.0111285
-0.0116266
-0.0119529
-0.0121019
-0.0120696
-0.0118533
-0.0114515
-0.0108638
-0.0100907
-0.00913378
-0.00799526
-0.00667814
-0.00518609
-0.00352338
-0.00169484
0.000294213
0.00243797
0.00473019
0.0071642
0.00973291
0.0124289
0.0152444
0.0181713
0.0212012
0.0243255
0.0275353
0.0308215
0.0341747
0.0375856
0.0410446
0.0445419
0.048068
0.0516133
0.00624176
0.00631038
0.0060348
0.00542179
0.00452949
0.00341645
0.00214197
0.000760686
-0.000679514
-0.00213721
-0.00357682
-0.00496785
-0.00628423
-0.00750372
-0.00860742
-0.0095794
-0.0104063
-0.0110771
-0.0115829
-0.0119164
-0.0120721
-0.012046
-0.0118354
-0.0114386
-0.0108552
-0.0100859
-0.00913212
-0.00799607
-0.00668079
-0.00518993
-0.00352778
-0.00169914
0.000290624
0.00243572
0.00472986
0.00716637
0.00973815
0.0124377
0.0152573
0.0181887
0.0212236
0.0243533
0.0275687
0.0308609
0.0342204
0.0376378
0.0411034
0.0446075
0.0481405
0.0516927
0.00636836
0.00643819
0.00616358
0.00555066
0.00465732
0.00354205
0.00226421
0.000878563
-0.000566883
-0.00203054
-0.00347669
-0.00487468
-0.0061983
-0.0074252
-0.00853637
-0.00951579
-0.01035
-0.011028
-0.0115405
-0.0118805
-0.0120423
-0.0120217
-0.0118161
-0.0114238
-0.0108445
-0.0100786
-0.0091276
-0.00799383
-0.00668025
-0.00519052
-0.00352892
-0.00170029
0.000290039
0.00243624
0.00473203
0.0071707
0.00974512
0.0124478
0.015271
0.0182064
0.0212456
0.02438
0.0276005
0.0308979
0.034263
0.0376861
0.0411576
0.0446677
0.0482067
0.0517651
0.00648207
0.00655298
0.00627925
0.00566646
0.00477225
0.00365509
0.00237435
0.000984913
-0.000465106
-0.00193398
-0.00338585
-0.00478994
-0.00611991
-0.00735331
-0.00847106
-0.00945703
-0.0102977
-0.0109819
-0.0115006
-0.0118462
-0.0120133
-0.0119977
-0.0117966
-0.0114083
-0.0108325
-0.0100696
-0.00912122
-0.0079895
-0.00667746
-0.00518879
-0.00352775
-0.00169918
0.00029158
0.00243869
0.00473586
0.00717636
0.00975307
0.0124585
0.0152847
0.0182236
0.0212666
0.0244051
0.0276299
0.030932
0.0343019
0.03773
0.0412066
0.044722
0.0482663
0.05183
0.00658239
0.00665424
0.0063813
0.00576865
0.00487374
0.00375498
0.00247177
0.00107909
-0.000374857
-0.00184823
-0.00330503
-0.00471438
-0.00604985
-0.00728888
-0.00841232
-0.00940398
-0.0102503
-0.01094
-0.0114638
-0.0118145
-0.0119863
-0.011975
-0.0117777
-0.011393
-0.0108202
-0.0100601
-0.00911387
-0.00798396
-0.0066733
-0.00518559
-0.00352508
-0.00169662
0.000294451
0.00244229
0.0047406
0.00718266
0.0097613
0.012469
0.0152979
0.0182397
0.021286
0.024428
0.0276566
0.0309627
0.0343367
0.0377691
0.0412502
0.04477
0.0483189
0.0518872
0.00666888
0.00674154
0.00646928
0.00585678
0.00496128
0.00384122
0.00255594
0.00116053
-0.000296724
-0.00177389
-0.00323487
-0.00464868
-0.0059888
-0.00723261
-0.00836088
-0.00935739
-0.0102085
-0.0109028
-0.0114312
-0.0117861
-0.0119619
-0.0119542
-0.0117603
-0.0113786
-0.0108085
-0.0100506
-0.00910634
-0.00797798
-0.00666854
-0.00518167
-0.00352166
-0.00169334
0.000297948
0.00244636
0.00474561
0.00718894
0.0097692
0.0124788
0.0153099
0.0182543
0.0213033
0.0244483
0.0276801
0.0309895
0.034367
0.0378031
0.0412879
0.0448115
0.0483643
0.0519365
0.00674119
0.0068145
0.00654282
0.00593046
0.00503453
0.00391339
0.00262641
0.00122878
-0.000231198
-0.00171149
-0.00317591
-0.0045934
-0.00593736
-0.00718511
-0.00831739
-0.00931791
-0.010173
-0.0108712
-0.0114033
-0.0117617
-0.0119408
-0.0119362
-0.0117451
-0.0113659
-0.010798
-0.010042
-0.0090993
-0.00797225
-0.00666383
-0.00517769
-0.00351813
-0.00168996
0.000301463
0.00245032
0.0047503
0.00719467
0.00977624
0.0124875
0.0153204
0.0182668
0.0213181
0.0244655
0.0276999
0.0310121
0.0343925
0.0378315
0.0413194
0.0448462
0.0484021
0.0519776
0.00679899
0.00687283
0.00660161
0.00598938
0.00509312
0.00397115
0.00268283
0.00128345
-0.000178684
-0.00166145
-0.0031286
-0.004549
-0.00589601
-0.00714691
-0.00828238
-0.00928609
-0.0101443
-0.0108456
-0.0113807
-0.011742
-0.0119237
-0.0119216
-0.0117327
-0.0113554
-0.0107892
-0.0100347
-0.00909333
-0.00796733
-0.00665973
-0.0051742
-0.00351503
-0.00168702
0.00030449
0.00245367
0.00475421
0.00719938
0.00978197
0.0124944
0.0153288
0.0182768
0.0213299
0.0244793
0.0277157
0.0310301
0.0344128
0.0378542
0.0413445
0.0448737
0.0484322
0.0520102
0.00684207
0.00691629
0.00664544
0.00603331
0.00513681
0.00401424
0.00272492
0.00132423
-0.000139503
-0.00162412
-0.00309331
-0.00451589
-0.00586517
-0.0071184
-0.00825625
-0.00926236
-0.010123
-0.0108266
-0.0113639
-0.0117274
-0.0119111
-0.0119107
-0.0117235
-0.0113477
-0.0107828
-0.0100294
-0.00908889
-0.00796367
-0.0066567
-0.00517164
-0.00351278
-0.00168492
0.000306617
0.00245601
0.00475695
0.0072027
0.00978605
0.0124994
0.0153349
0.0182841
0.0213385
0.0244893
0.0277273
0.0310433
0.0344277
0.0378709
0.041363
0.0448941
0.0484544
0.0520343
0.00687026
0.00694475
0.00667414
0.00606208
0.00516542
0.00404245
0.00275247
0.00135092
-0.000113891
-0.00159975
-0.0030703
-0.00449433
-0.00584512
-0.0070999
-0.00823932
-0.00924703
-0.0101093
-0.0108145
-0.0113533
-0.0117181
-0.0119031
-0.011904
-0.0117178
-0.011343
-0.0107789
-0.0100262
-0.00908635
-0.00796164
-0.00665509
-0.00517037
-0.00351174
-0.001684
0.000307529
0.00245704
0.00475823
0.00720435
0.00978821
0.0125022
0.0153384
0.0182884
0.0213437
0.0244954
0.0277345
0.0310515
0.034437
0.0378814
0.0413747
0.0449071
0.0484687
0.0520498
0.00688344
0.00695807
0.00668759
0.00607556
0.00517882
0.00405564
0.00276534
0.00136336
-0.000101997
-0.00158848
-0.00305972
-0.00448447
-0.00583602
-0.00709156
-0.00823178
-0.0092403
-0.0101033
-0.0108094
-0.0113489
-0.0117145
-0.0119002
-0.0119016
-0.011716
-0.0113416
-0.0107779
-0.0100255
-0.00908598
-0.00796151
-0.00665518
-0.00517063
-0.00351212
-0.00168446
0.000307049
0.0024566
0.0047579
0.00720421
0.00978833
0.0125026
0.0153392
0.0182896
0.0213453
0.0244975
0.0277371
0.0310546
0.0344407
0.0378857
0.0413796
0.0449126
0.0484748
0.0520565
0.000799285
0.000883779
0.000867436
0.000770626
0.000608467
0.000393778
0.000141039
-0.0001351
-0.00042037
-0.000701254
-0.00096506
-0.00120006
-0.00139544
-0.00154138
-0.00162907
-0.00165054
-0.00159878
-0.00146761
-0.00125168
-0.000946402
-0.000547841
-5.28912e-05
0.000540923
0.00123546
0.002032
0.00293115
0.00393304
0.00503729
0.00624307
0.00754905
0.00895352
0.0104544
0.0120491
0.0137349
0.0155085
0.0173664
0.0193048
0.0213197
0.0234065
0.0255607
0.0277774
0.0300517
0.0323781
0.0347512
0.0371656
0.0396153
0.0420946
0.0445974
0.0471178
0.0496495
0.000859227
0.000906059
0.000874926
0.000773142
0.000611476
0.000400724
0.000154333
-0.000113715
-0.000389693
-0.000660511
-0.000913734
-0.00113819
-0.00132309
-0.00145886
-0.00153682
-0.00154912
-0.00148885
-0.0013499
-0.00112695
-0.00081545
-0.00041156
8.78538e-05
0.000685275
0.00138256
0.00218097
0.00308116
0.00408329
0.00518699
0.00639143
0.00769533
0.00909699
0.0105943
0.0121849
0.0138659
0.0156341
0.017486
0.019418
0.0214258
0.0235051
0.0256514
0.0278599
0.0301254
0.0324428
0.0348066
0.0372113
0.0396512
0.0421205
0.0446132
0.0471233
0.0496446
0.000877657
0.00091556
0.000872773
0.000759191
0.000586485
0.00036556
0.000109934
-0.000166286
-0.000449405
-0.000726263
-0.000984575
-0.00121297
-0.00140098
-0.00153908
-0.00161865
-0.00163196
-0.00157216
-0.00143322
-0.00120989
-0.000897676
-0.000492794
7.84722e-06
0.000606696
0.00130557
0.00210569
0.00300771
0.00401174
0.00511741
0.00632386
0.00762979
0.0090335
0.0105329
0.0121255
0.0138085
0.0155788
0.0174328
0.0193667