/*--------------------------------*- C++ -*----------------------------------*\
| =========                 |                                                 |
| \\      /  F ield         | OpenFOAM: The Open Source CFD Toolbox           |
|  \\    /   O peration     | Version:                                        |
|   \\  /    A nd           | Website:  www.openfoam.com                      |
|    \\/     M anipulation  |                                                 |
\*---------------------------------------------------------------------------*/
FoamFile
{
    version     2.0;
    format      ascii;
    class       volScalarField;
    location    "0.05";
    object      p;
}
// * * * * * * * * * * * * * * * * * * * * * * * * * * * * * * * * * * * * * //

dimensions      [0 2 -2 0 0 0 0];


internalField   nonuniform List<scalar> 
125000
(
0.032262
0.0387766
0.0453225
0.0518921
0.0584773
0.0650697
0.0716607
0.0782409
0.0848007
0.0913301
0.0978183
0.104254
0.110626
0.116922
0.123129
0.129233
0.135221
0.141079
0.146791
0.152343
0.15772
0.162904
0.167881
0.172634
0.177147
0.181405
0.185392
0.189093
0.192495
0.195585
0.198351
0.200783
0.202874
0.204618
0.206012
0.207058
0.20776
0.208127
0.208174
0.207921
0.207397
0.206636
0.205685
0.204601
0.203455
0.20233
0.201324
0.200548
0.200072
0.199829
0.0322937
0.0388312
0.0453992
0.0519899
0.0585956
0.0652078
0.071818
0.0784169
0.0849952
0.0915427
0.0980489
0.104503
0.110893
0.117208
0.123434
0.129558
0.135567
0.141447
0.147183
0.15276
0.158163
0.163377
0.168385
0.173172
0.177723
0.182021
0.186052
0.189801
0.193255
0.196401
0.199227
0.201724
0.203885
0.205703
0.207176
0.208305
0.209094
0.20955
0.209688
0.209525
0.209086
0.208403
0.207514
0.206467
0.205317
0.204126
0.202961
0.2019
0.200965
0.20005
0.0323367
0.038892
0.045477
0.0520844
0.0587062
0.0653341
0.0719596
0.0785735
0.0851666
0.0917288
0.0982497
0.104718
0.111124
0.117453
0.123694
0.129835
0.13586
0.141758
0.147512
0.153108
0.158531
0.163767
0.168798
0.173609
0.178186
0.182512
0.186573
0.190354
0.193841
0.197023
0.199887
0.202423
0.204625
0.206486
0.208003
0.209176
0.210007
0.210505
0.210681
0.21055
0.210133
0.209459
0.208559
0.207473
0.206245
0.204923
0.203558
0.20222
0.20089
0.199365
0.0323921
0.0389635
0.0455643
0.0521869
0.0588237
0.0654663
0.0721062
0.0787344
0.0853416
0.0919178
0.0984527
0.104936
0.111355
0.117699
0.123955
0.13011
0.136151
0.142064
0.147835
0.153448
0.158889
0.164143
0.169194
0.174026
0.178624
0.182972
0.187056
0.190861
0.194374
0.197581
0.200471
0.203034
0.205262
0.207149
0.20869
0.209885
0.210735
0.211247
0.211429
0.211295
0.210862
0.210153
0.209195
0.20802
0.206663
0.20516
0.203551
0.201903
0.200157
0.197983
0.032458
0.0390449
0.0456608
0.0522984
0.0589497
0.0656068
0.0722609
0.0789032
0.0855244
0.0921145
0.0986634
0.10516
0.111594
0.117952
0.124222
0.130392
0.136448
0.142376
0.148163
0.153792
0.15925
0.164521
0.169589
0.174439
0.179055
0.183422
0.187525
0.191349
0.19488
0.198106
0.201014
0.203595
0.205838
0.207738
0.209289
0.21049
0.211341
0.211846
0.212012
0.211848
0.211371
0.210596
0.209547
0.208247
0.206725
0.205005
0.203119
0.201132
0.198943
0.196089
0.032532
0.0391334
0.0457636
0.0524152
0.0590804
0.0657512
0.072419
0.0790749
0.0857095
0.0923132
0.0988756
0.105386
0.111833
0.118205
0.124489
0.130673
0.136743
0.142685
0.148486
0.15413
0.159603
0.164888
0.169971
0.174836
0.179466
0.183848
0.187964
0.191802
0.195345
0.198582
0.2015
0.204088
0.206336
0.208236
0.209784
0.210975
0.211809
0.212288
0.212415
0.2122
0.211652
0.210785
0.209617
0.208164
0.206449
0.204488
0.202305
0.199965
0.197327
0.193799
0.0326122
0.0392269
0.0458703
0.052535
0.0592133
0.065897
0.0725778
0.0792466
0.0858942
0.0925107
0.099086
0.105609
0.112069
0.118454
0.124751
0.130948
0.137032
0.142987
0.148801
0.154458
0.159943
0.165241
0.170336
0.175212
0.179854
0.184245
0.188371
0.192216
0.195766
0.199007
0.201926
0.204511
0.206753
0.208643
0.210174
0.211342
0.212143
0.212579
0.21265
0.212363
0.211724
0.210744
0.209434
0.207809
0.205882
0.203664
0.201172
0.198475
0.195394
0.191214
0.0326965
0.0393235
0.045979
0.0526558
0.0593462
0.0660421
0.072735
0.079416
0.0860758
0.0927046
0.0992922
0.105828
0.1123
0.118697
0.125007
0.131216
0.137311
0.143278
0.149104
0.154772
0.160268
0.165576
0.17068
0.175565
0.180214
0.184612
0.188742
0.19259
0.19614
0.199378
0.20229
0.204866
0.207093
0.208962
0.210465
0.211597
0.212352
0.21273
0.212731
0.212356
0.21161
0.2105
0.209034
0.20722
0.20507
0.202587
0.199783
0.196733
0.193222
0.188422
0.0327833
0.0394213
0.0460878
0.0527756
0.0594772
0.0661844
0.0728886
0.079581
0.0862522
0.0928925
0.0994916
0.106039
0.112522
0.118931
0.125252
0.131472
0.137578
0.143556
0.149391
0.155069
0.160573
0.165889
0.171001
0.175891
0.180545
0.184945
0.189075
0.19292
0.196465
0.199694
0.202594
0.205152
0.207356
0.209195
0.210661
0.211746
0.212445
0.212753
0.21267
0.212195
0.21133
0.210078
0.208445
0.206435
0.204055
0.201304
0.198192
0.194797
0.190876
0.185494
0.0328709
0.0395187
0.046195
0.0528928
0.0596045
0.066322
0.0730366
0.0797395
0.0864213
0.0930722
0.0996819
0.10624
0.112734
0.119153
0.125484
0.131714
0.13783
0.143817
0.149661
0.155346
0.160857
0.166179
0.171295
0.176188
0.180843
0.185241
0.189368
0.193207
0.196741
0.199956
0.202837
0.205371
0.207545
0.209346
0.210766
0.211796
0.212429
0.212659
0.212482
0.211898
0.210905
0.209503
0.207696
0.205485
0.202874
0.199859
0.196446
0.192719
0.188409
0.182486
0.032958
0.0396141
0.046299
0.0530057
0.0597266
0.0664532
0.0731773
0.0798897
0.0865812
0.0932419
0.0998613
0.106429
0.112933
0.119361
0.125701
0.13194
0.138064
0.144059
0.14991
0.155601
0.161118
0.166443
0.171561
0.176455
0.181107
0.185501
0.189621
0.193448
0.196968
0.200164
0.203021
0.205525
0.207662
0.20942
0.210787
0.211755
0.212314
0.212458
0.212182
0.211481
0.210353
0.208798
0.206814
0.204402
0.201562
0.198288
0.194585
0.190543
0.185867
0.179444
0.0330432
0.0397065
0.0463988
0.0531132
0.059842
0.0665769
0.0733094
0.0800304
0.0867306
0.0934
0.100028
0.106604
0.113117
0.119554
0.125902
0.132149
0.13828
0.144281
0.150137
0.155833
0.161353
0.16668
0.171797
0.176689
0.181336
0.185723
0.189832
0.193645
0.197146
0.200319
0.203148
0.205617
0.207712
0.20942
0.21073
0.211629
0.21211
0.212163
0.211781
0.21096
0.209695
0.207983
0.205822
0.203211
0.200147
0.196624
0.192644
0.188303
0.183287
0.176404
0.0331253
0.0397946
0.0464931
0.053214
0.0599497
0.0666918
0.0734316
0.0801602
0.0868681
0.0935454
0.100181
0.106765
0.113285
0.11973
0.126085
0.132338
0.138475
0.144481
0.150341
0.15604
0.161561
0.166887
0.172003
0.17689
0.18153
0.185907
0.190002
0.193798
0.197277
0.200423
0.203219
0.205649
0.207699
0.209354
0.210601
0.211428
0.211826
0.211784
0.211295
0.210351
0.208947
0.207079
0.204743
0.201937
0.198657
0.194895
0.190652
0.186031
0.180699
0.173393
0.0332036
0.0398777
0.0465811
0.0533074
0.0600488
0.066797
0.0735432
0.0802784
0.086993
0.093677
0.10032
0.106911
0.113437
0.119888
0.126249
0.132507
0.138649
0.144658
0.150521
0.156221
0.161742
0.167066
0.172177
0.177057
0.181688
0.186052
0.190131
0.193907
0.197361
0.200477
0.203238
0.205626
0.207627
0.209225
0.210407
0.211159
0.211471
0.211333
0.210734
0.209667
0.208125
0.206103
0.203597
0.200601
0.197114
0.193124
0.188634
0.183751
0.178128
0.170436
0.0332775
0.0399549
0.0466621
0.0533926
0.0601387
0.0668919
0.0736434
0.0803841
0.0871044
0.0937942
0.100443
0.107039
0.113571
0.120027
0.126393
0.132655
0.1388
0.144812
0.150676
0.156376
0.161895
0.167215
0.17232
0.177192
0.181812
0.186161
0.190221
0.193974
0.197402
0.200485
0.203208
0.205552
0.207501
0.20904
0.210154
0.21083
0.211055
0.210819
0.21011
0.208921
0.207244
0.205072
0.202399
0.199222
0.195537
0.191332
0.18661
0.181485
0.175592
0.167548
0.033346
0.0400257
0.0467356
0.0534692
0.0602189
0.066976
0.0737318
0.080477
0.087202
0.0938966
0.10055
0.107151
0.113688
0.120147
0.126517
0.132782
0.138929
0.144942
0.150806
0.156504
0.16202
0.167335
0.172433
0.177294
0.1819
0.186233
0.190273
0.194002
0.1974
0.20045
0.203132
0.20543
0.207326
0.208805
0.20985
0.210448
0.210586
0.210252
0.209435
0.208126
0.206316
0.203998
0.201166
0.197816
0.193943
0.189536
0.184598
0.179247
0.173108
0.164743
0.0334089
0.0400897
0.0468012
0.0535369
0.060289
0.0670491
0.0738081
0.0805568
0.0872855
0.0939839
0.100641
0.107246
0.113786
0.120248
0.12662
0.132888
0.139036
0.145049
0.150911
0.156606
0.162117
0.167426
0.172515
0.177364
0.181956
0.186271
0.190289
0.193992
0.19736
0.200373
0.203014
0.205265
0.207107
0.208524
0.2095
0.210021
0.210072
0.209642
0.208719
0.207292
0.205353
0.202895
0.199911
0.196396
0.192346
0.18775
0.182612
0.177053
0.170687
0.162031
0.033466
0.0401468
0.0468587
0.0535955
0.0603491
0.067111
0.0738723
0.0806236
0.087355
0.0940561
0.100716
0.107323
0.113866
0.120331
0.126704
0.132972
0.13912
0.145132
0.150992
0.156683
0.162188
0.167489
0.172567
0.177404
0.18198
0.186276
0.190271
0.193946
0.197282
0.200259
0.202858
0.20506
0.206848
0.208203
0.209111
0.209554
0.209521
0.208996
0.207969
0.206429
0.204366
0.201774
0.198645
0.194975
0.190759
0.185986
0.180662
0.174912
0.168339
0.159418
0.0335171
0.0401969
0.0469083
0.0536449
0.0603991
0.067162
0.0739246
0.0806774
0.0874106
0.0941136
0.100775
0.107384
0.113928
0.120394
0.126768
0.133036
0.139183
0.145193
0.151049
0.156735
0.162233
0.167525
0.172592
0.177415
0.181974
0.186249
0.190221
0.193868
0.197171
0.200111
0.202667
0.204821
0.206554
0.207848
0.208688
0.209056
0.208939
0.208322
0.207195
0.205546
0.203365
0.200645
0.197379
0.193562
0.189192
0.184255
0.178758
0.172832
0.166071
0.15691
0.0335621
0.04024
0.0469498
0.0536855
0.0604392
0.0672021
0.0739651
0.0807186
0.0874527
0.0941566
0.100819
0.107429
0.113974
0.12044
0.126813
0.13308
0.139225
0.145231
0.151083
0.156764
0.162254
0.167536
0.172591
0.177399
0.18194
0.186194
0.190141
0.19376
0.19703
0.199932
0.202445
0.204551
0.20623
0.207464
0.208237
0.208531
0.208333
0.207628
0.206404
0.20465
0.202356
0.199515
0.196121
0.192167
0.187651
0.182563
0.176908
0.17082
0.163887
0.154509
0.0336012
0.0402762
0.0469835
0.0537173
0.0604697
0.0672317
0.0739943
0.0807476
0.0874817
0.0941858
0.100849
0.107458
0.114003
0.120468
0.12684
0.133105
0.139247
0.14525
0.151096
0.15677
0.162251
0.167523
0.172565
0.177357
0.18188
0.186112
0.190034
0.193624
0.196861
0.199725
0.202196
0.204254
0.20588
0.207056
0.207763
0.207986
0.207709
0.206919
0.205602
0.203749
0.201348
0.198393
0.194877
0.190796
0.186146
0.180916
0.175116
0.168881
0.161791
0.152217
0.0336343
0.0403055
0.0470096
0.0537407
0.060491
0.0672514
0.0740126
0.0807649
0.0874982
0.0942016
0.100864
0.107473
0.114016
0.12048
0.12685
0.133112
0.13925
0.145248
0.151089
0.156755
0.162227
0.167487
0.172515
0.177292
0.181796
0.186006
0.189903
0.193464
0.196668
0.199495
0.201924
0.203935
0.205509
0.206627
0.207271
0.207425
0.207073
0.206201
0.204796
0.202848
0.200347
0.197285
0.193655
0.189455
0.18468
0.179321
0.173387
0.167017
0.159784
0.150033
0.0336617
0.0403284
0.0470284
0.0537561
0.0605035
0.0672615
0.0740207
0.0807713
0.087503
0.094205
0.100866
0.107473
0.114014
0.120476
0.126844
0.133102
0.139236
0.145228
0.151062
0.15672
0.162183
0.167431
0.172445
0.177205
0.18169
0.185878
0.189749
0.193281
0.196453
0.199243
0.201631
0.203597
0.20512
0.206183
0.206766
0.206853
0.206429
0.205479
0.203992
0.201954
0.199358
0.196195
0.19246
0.188148
0.183259
0.17778
0.171723
0.16523
0.157869
0.147958
0.0336837
0.0403453
0.0470405
0.0537641
0.0605079
0.0672628
0.0740192
0.0807674
0.0874969
0.0941967
0.100855
0.107461
0.113999
0.120458
0.126822
0.133077
0.139205
0.145192
0.151019
0.156667
0.16212
0.167356
0.172356
0.177099
0.181565
0.185731
0.189577
0.19308
0.19622
0.198974
0.201322
0.203243
0.204718
0.205727
0.206251
0.206275
0.205782
0.204759
0.203192
0.201071
0.198385
0.195129
0.191295
0.186881
0.181885
0.176297
0.170128
0.163523
0.156045
0.145989
0.0337005
0.0403563
0.0470463
0.053765
0.0605047
0.0672558
0.0740089
0.080754
0.0874806
0.0941778
0.100834
0.107436
0.113972
0.120427
0.126787
0.133037
0.13916
0.14514
0.150959
0.156599
0.16204
0.167264
0.172249
0.176976
0.181422
0.185567
0.189388
0.192863
0.195971
0.198691
0.201
0.202878
0.204306
0.205263
0.205732
0.205695
0.205137
0.204044
0.202403
0.200202
0.197433
0.194089
0.190164
0.185656
0.180562
0.174873
0.168602
0.161895
0.154311
0.144125
0.0337126
0.040362
0.0470461
0.0537596
0.0604945
0.0672413
0.0739905
0.080732
0.0874552
0.094149
0.100802
0.107401
0.113933
0.120384
0.126739
0.132984
0.139101
0.145074
0.150885
0.156516
0.161946
0.167157
0.172128
0.176838
0.181265
0.185388
0.189185
0.192633
0.19571
0.198395
0.200667
0.202504
0.203887
0.204795
0.20521
0.205116
0.204497
0.203338
0.201626
0.199352
0.196506
0.19308
0.189071
0.184475
0.179291
0.173511
0.167145
0.160346
0.152666
0.142363
0.0337203
0.0403628
0.0470405
0.0537483
0.060478
0.06722
0.0739648
0.0807022
0.0874215
0.0941116
0.10076
0.107355
0.113883
0.12033
0.126681
0.13292
0.139031
0.144996
0.150799
0.15642
0.161839
0.167037
0.171994
0.176687
0.181095
0.185197
0.18897
0.192391
0.195439
0.198092
0.200327
0.202125
0.203464
0.204326
0.204691
0.204542
0.203864
0.202644
0.200867
0.198524
0.195605
0.192104
0.188016
0.18334
0.178074
0.172209
0.165759
0.158876
0.15111
0.140702
0.0337238
0.0403592
0.0470302
0.0537318
0.0604558
0.0671927
0.0739326
0.0806655
0.0873805
0.0940664
0.100711
0.107302
0.113825
0.120267
0.126612
0.132845
0.13895
0.144908
0.150702
0.156313
0.161721
0.166907
0.171849
0.176525
0.180915
0.184996
0.188746
0.192142
0.195161
0.197782
0.199983
0.201743
0.203041
0.203858
0.204176
0.203976
0.203244
0.201965
0.200127
0.19772
0.194734
0.191163
0.187003
0.182253
0.176911
0.17097
0.164443
0.157483
0.149639
0.139137
0.0337237
0.0403517
0.0470156
0.0537107
0.0604288
0.0671601
0.0738949
0.0806229
0.0873332
0.0940145
0.100655
0.107241
0.113759
0.120196
0.126536
0.132763
0.13886
0.144811
0.150596
0.156197
0.161594
0.166767
0.171695
0.176355
0.180727
0.184788
0.188515
0.191886
0.194878
0.197469
0.199637
0.201361
0.202621
0.203396
0.203668
0.20342
0.202637
0.201304
0.199409
0.196942
0.193894
0.190259
0.186033
0.181214
0.175804
0.169793
0.163195
0.156167
0.148252
0.137665
0.0337205
0.0403407
0.0469974
0.0536857
0.0603976
0.0671231
0.0738524
0.0805752
0.0872805
0.0939569
0.100592
0.107173
0.113687
0.120118
0.126452
0.132673
0.138763
0.144706
0.150482
0.156074
0.16146
0.16662
0.171534
0.176179
0.180533
0.184575
0.18828
0.191627
0.194593
0.197155
0.199292
0.200982
0.202205
0.20294
0.20317
0.202877
0.202046
0.200663
0.198715
0.196193
0.193087
0.189393
0.185106
0.180225
0.174752
0.168677
0.162016
0.154926
0.146948
0.136285
0.0337143
0.0403267
0.0469759
0.0536574
0.0603628
0.0670823
0.0738059
0.0805233
0.0872234
0.0938947
0.100525
0.107101
0.113609
0.120035
0.126363
0.132577
0.13866
0.144595
0.150363
0.155944
0.16132
0.166468
0.171368
0.175998
0.180336
0.184358
0.188043
0.191367
0.194308
0.196843
0.19895
0.200608
0.201796
0.202494
0.202685
0.202349
0.201474
0.200044
0.198047
0.195473
0.192315
0.188566
0.184224
0.179286
0.173755
0.167623
0.160904
0.153758
0.145723
0.134992
0.0337056
0.0403102
0.0469519
0.0536263
0.0603251
0.0670385
0.0737563
0.0804681
0.0871629
0.0938289
0.100454
0.107025
0.113527
0.119947
0.126269
0.132477
0.138553
0.14448
0.150239
0.155811
0.161176
0.166312
0.171199
0.175814
0.180136
0.18414
0.187805
0.191108
0.194025
0.196534
0.198613
0.200241
0.201396
0.20206
0.202213
0.201839
0.200922
0.199448
0.197406
0.194786
0.191579
0.18778
0.183386
0.178397
0.172814
0.166629
0.159858
0.152661
0.144576
0.133784
0.0336949
0.0402916
0.0469258
0.0535931
0.0602853
0.0669924
0.0737043
0.0804105
0.0870998
0.0937605
0.10038
0.106945
0.113443
0.119857
0.126173
0.132374
0.138443
0.144362
0.150113
0.155675
0.16103
0.166154
0.171028
0.17563
0.179936
0.183923
0.18757
0.190851
0.193746
0.196231
0.198284
0.199883
0.201008
0.201639
0.201758
0.201347
0.200392
0.198878
0.196794
0.19413
0.190879
0.187035
0.182594
0.177558
0.171927
0.165695
0.158877
0.151635
0.143503
0.132658
0.0336826
0.0402713
0.046898
0.0535584
0.0602439
0.0669448
0.0736508
0.0803513
0.0870351
0.0936903
0.100305
0.106864
0.113356
0.119765
0.126074
0.132269
0.138331
0.144243
0.149985
0.155539
0.160883
0.165996
0.170858
0.175446
0.179737
0.183709
0.187337
0.1906
0.193473
0.195935
0.197963
0.199536
0.200633
0.201234
0.201321
0.200876
0.199885
0.198335
0.196212
0.193509
0.190216
0.18633
0.181848
0.176769
0.171095
0.16482
0.15796
0.150676
0.142504
0.13161
0.033669
0.0402499
0.0468692
0.0535226
0.0602016
0.0668964
0.0735964
0.0802912
0.0869695
0.0936194
0.100228
0.106783
0.113269
0.119672
0.125976
0.132164
0.138219
0.144124
0.149858
0.155402
0.160737
0.16584
0.17069
0.175265
0.179542
0.183498
0.18711
0.190354
0.193208
0.195649
0.197654
0.199202
0.200272
0.200846
0.200903
0.200427
0.199404
0.197819
0.195661
0.192921
0.189592
0.185668
0.181147
0.176029
0.170316
0.164002
0.157104
0.149784
0.141576
0.130639
0.0336543
0.0402278
0.0468398
0.0534863
0.060159
0.0668476
0.0735418
0.0802311
0.0869039
0.0935485
0.100152
0.106701
0.113182
0.119579
0.125877
0.132059
0.138108
0.144005
0.149732
0.155268
0.160593
0.165686
0.170525
0.175088
0.179352
0.183293
0.18689
0.190117
0.192952
0.195373
0.197357
0.198882
0.199928
0.200475
0.200505
0.200001
0.198948
0.197332
0.195142
0.192369
0.189006
0.185047
0.180491
0.175338
0.16959
0.163242
0.15631
0.148957
0.140716
0.129741
0.033639
0.0402052
0.0468102
0.0534501
0.0601165
0.0667992
0.0734878
0.0801716
0.0868391
0.0934785
0.100077
0.106621
0.113096
0.119488
0.125781
0.131957
0.137999
0.143889
0.149608
0.155136
0.160453
0.165536
0.170365
0.174916
0.179168
0.183096
0.186677
0.189889
0.192707
0.195109
0.197073
0.198577
0.199601
0.200125
0.20013
0.199599
0.198518
0.196874
0.194655
0.191852
0.188458
0.184468
0.179881
0.174696
0.168917
0.162537
0.155575
0.148193
0.139922
0.128914
0.0336234
0.0401825
0.0467808
0.0534144
0.0600748
0.0667517
0.0734349
0.0801133
0.0867758
0.0934101
0.100004
0.106543
0.113013
0.1194
0.125686
0.131857
0.137893
0.143777
0.149489
0.155009
0.160317
0.165392
0.170211
0.174751
0.178991
0.182907
0.186475
0.189672
0.192474
0.194859
0.196805
0.19829
0.199293
0.199795
0.199777
0.199222
0.198117
0.196447
0.194201
0.191371
0.187949
0.183931
0.179315
0.174102
0.168295
0.161888
0.154898
0.14749
0.139194
0.128155
0.0336078
0.0401602
0.046752
0.0533796
0.0600342
0.0667057
0.0733836
0.080057
0.0867146
0.0933441
0.0999328
0.106467
0.112933
0.119314
0.125596
0.131761
0.137791
0.143669
0.149374
0.154887
0.160188
0.165254
0.170063
0.174594
0.178824
0.182728
0.186283
0.189466
0.192254
0.194624
0.196553
0.19802
0.199005
0.199487
0.199448
0.198872
0.197744
0.19605
0.193781
0.190926
0.187479
0.183436
0.178795
0.173556
0.167724
0.161292
0.154278
0.146847
0.138528
0.127463
0.0335924
0.0401385
0.0467243
0.0533461
0.0599953
0.0666616
0.0733345
0.0800032
0.0866561
0.0932811
0.0998653
0.106395
0.112856
0.119233
0.12551
0.131669
0.137694
0.143566
0.149265
0.154772
0.160065
0.165123
0.169925
0.174447
0.178666
0.182559
0.186103
0.189274
0.192049
0.194404
0.196319
0.19777
0.198737
0.199201
0.199144
0.198548
0.1974
0.195685
0.193394
0.190517
0.187048
0.182983
0.178319
0.173058
0.167203
0.160749
0.153713
0.146262
0.137924
0.126836
0.0335775
0.0401178
0.0466979
0.0533143
0.0599584
0.0666199
0.0732882
0.0799524
0.086601
0.0932217
0.0998016
0.106327
0.112784
0.119156
0.125428
0.131583
0.137603
0.14347
0.149163
0.154664
0.15995
0.165002
0.169795
0.174309
0.178519
0.182403
0.185936
0.189096
0.191859
0.194202
0.196102
0.197539
0.198491
0.198939
0.198865
0.198252
0.197085
0.195352
0.193042
0.190146
0.186657
0.182571
0.177887
0.172606
0.166731
0.160258
0.153204
0.145735
0.137379
0.126271
0.0335632
0.040098
0.046673
0.0532845
0.059924
0.066581
0.0732451
0.0799051
0.0865497
0.0931664
0.0997425
0.106264
0.112717
0.119085
0.125353
0.131504
0.137519
0.143381
0.149069
0.154564
0.159845
0.164889
0.169676
0.174182
0.178384
0.182259
0.185784
0.188933
0.191686
0.194017
0.195905
0.197329
0.198267
0.198701
0.198612
0.197983
0.196801
0.195051
0.192724
0.18981
0.186304
0.182201
0.177499
0.172201
0.166309
0.159819
0.152748
0.145264
0.136893
0.125767
0.0335499
0.0400798
0.04665
0.053257
0.0598923
0.0665453
0.0732055
0.0798618
0.0865026
0.0931159
0.0996883
0.106206
0.112656
0.11902
0.125285
0.131431
0.137442
0.1433
0.148983
0.154473
0.159748
0.164787
0.169568
0.174067
0.178262
0.18213
0.185646
0.188787
0.191529
0.19385
0.195728
0.19714
0.198067
0.198488
0.198385
0.197743
0.196547
0.194783
0.192441
0.189512
0.185991
0.181872
0.177155
0.171841
0.165935
0.15943
0.152345
0.144847
0.136463
0.125323
0.0335373
0.0400631
0.0466292
0.0532321
0.0598637
0.066513
0.0731697
0.0798228
0.0864603
0.0930703
0.0996397
0.106155
0.112601
0.118962
0.125223
0.131366
0.137374
0.143227
0.148906
0.154392
0.159662
0.164696
0.169471
0.173965
0.178154
0.182014
0.185523
0.188656
0.191391
0.193703
0.195572
0.196974
0.19789
0.1983
0.198186
0.197532
0.196323
0.194547
0.192192
0.189251
0.185716
0.181585
0.176855
0.171528
0.165608
0.159091
0.151994
0.144485
0.13609
0.124938
0.0335263
0.0400482
0.0466106
0.0532101
0.0598383
0.0664846
0.0731382
0.0797883
0.0864231
0.0930303
0.099597
0.106109
0.112552
0.118911
0.125169
0.131309
0.137314
0.143163
0.148839
0.154321
0.159587
0.164617
0.169387
0.173876
0.178059
0.181914
0.185416
0.188543
0.191271
0.193576
0.195436
0.19683
0.197737
0.198138
0.198014
0.19735
0.196131
0.194344
0.191979
0.189026
0.185481
0.181338
0.176597
0.17126
0.165329
0.158801
0.151694
0.144176
0.135772
0.124609
0.0335166
0.0400352
0.0465944
0.0531911
0.0598165
0.0664602
0.0731113
0.0797589
0.0863913
0.0929962
0.0995605
0.10607
0.112511
0.118868
0.125123
0.131261
0.137262
0.143109
0.148782
0.15426
0.159523
0.164549
0.169316
0.1738
0.177979
0.181829
0.185327
0.188448
0.191169
0.193468
0.195322
0.196709
0.197609
0.198002
0.19787
0.197198
0.19597
0.194175
0.191801
0.188839
0.185285
0.181133
0.176383
0.171036
0.165097
0.15856
0.151445
0.143919
0.135507
0.124336
0.0335081
0.0400242
0.046581
0.0531754
0.0597985
0.06644
0.0730891
0.0797347
0.0863652
0.0929682
0.0995306
0.106039
0.112478
0.118832
0.125086
0.131221
0.137221
0.143065
0.148736
0.154211
0.159471
0.164494
0.169258
0.173739
0.177914
0.18176
0.185254
0.188371
0.191088
0.193382
0.19523
0.196612
0.197506
0.197892
0.197754
0.197075
0.195841
0.194038
0.191657
0.188689
0.185127
0.180969
0.176211
0.170857
0.164911
0.158368
0.151246
0.143714
0.135297
0.124119
0.0335013
0.0400155
0.0465704
0.0531628
0.0597845
0.0664243
0.0730719
0.079716
0.0863449
0.0929465
0.0995075
0.106014
0.112452
0.118805
0.125057
0.131191
0.137189
0.143032
0.1487
0.154174
0.159432
0.164452
0.169213
0.173692
0.177865
0.181708
0.185198
0.188312
0.191026
0.193316
0.195161
0.196538
0.197427
0.19781
0.197667
0.196983
0.195743
0.193936
0.191549
0.188576
0.185009
0.180845
0.176082
0.170723
0.164771
0.158223
0.151097
0.14356
0.135138
0.123956
0.0334961
0.040009
0.0465626
0.0531539
0.0597744
0.0664133
0.0730597
0.0797029
0.0863308
0.0929314
0.0994915
0.105997
0.112434
0.118786
0.125037
0.13117
0.137167
0.143009
0.148676
0.154148
0.159405
0.164424
0.169183
0.17366
0.177831
0.181672
0.185161
0.188272
0.190984
0.193272
0.195114
0.196488
0.197375
0.197754
0.197608
0.196921
0.195678
0.193867
0.191477
0.1885
0.18493
0.180762
0.175996
0.170633
0.164678
0.158126
0.150997
0.143457
0.135033
0.123847
0.0334928
0.040005
0.0465579
0.0531488
0.0597685
0.0664069
0.0730528
0.0796954
0.086323
0.0929231
0.0994827
0.105988
0.112424
0.118776
0.125027
0.131159
0.137155
0.142996
0.148663
0.154134
0.15939
0.164409
0.169168
0.173644
0.177814
0.181654
0.185141
0.188252
0.190962
0.193249
0.19509
0.196463
0.197348
0.197725
0.197578
0.196889
0.195644
0.193831
0.19144
0.188461
0.184889
0.18072
0.175952
0.170587
0.16463
0.158077
0.150946
0.143405
0.134979
0.123792
0.0308713
0.0376406
0.0444442
0.0512746
0.0581239
0.0649839
0.0718459
0.0787009
0.0855393
0.092351
0.0991252
0.105851
0.112516
0.119108
0.125614
0.132021
0.138314
0.144478
0.150498
0.156358
0.162041
0.167532
0.172813
0.177867
0.182677
0.187225
0.191496
0.195474
0.199141
0.202486
0.205494
0.208153
0.210456
0.212395
0.213966
0.215168
0.216006
0.216488
0.216628
0.216445
0.215969
0.215235
0.214291
0.213196
0.212023
0.210861
0.209814
0.208996
0.208488
0.20822
0.030938
0.0377314
0.0445582
0.0514108
0.0582814
0.0651621
0.0720441
0.0789186
0.085776
0.0926063
0.0993991
0.106143
0.112827
0.119438
0.125964
0.132391
0.138704
0.144891
0.150934
0.156819
0.16253
0.168049
0.173362
0.17845
0.183297
0.187886
0.192201
0.196226
0.199946
0.203347
0.206416
0.209142
0.211515
0.213529
0.21518
0.216468
0.217394
0.217968
0.2182
0.218111
0.217723
0.21707
0.216191
0.215135
0.21396
0.21273
0.211519
0.210406
0.209417
0.208441
0.0310051
0.0378171
0.0446618
0.0515318
0.0584193
0.0653163
0.0722143
0.0791044
0.0859772
0.0928227
0.0996306
0.10639
0.113089
0.119715
0.126257
0.1327
0.13903
0.145234
0.151295
0.1572
0.162931
0.168472
0.173808
0.17892
0.183793
0.188411
0.192756
0.196813
0.200566
0.204003
0.20711
0.209876
0.212291
0.214349
0.216044
0.217376
0.218347
0.218962
0.219234
0.219176
0.218812
0.218167
0.217277
0.21618
0.214924
0.213558
0.212137
0.210734
0.209329
0.207706
0.0310796
0.0379086
0.0447698
0.0516558
0.0585591
0.0654714
0.0723845
0.0792894
0.0861768
0.0930369
0.0998592
0.106633
0.113347
0.119988
0.126544
0.133002
0.139349
0.145568
0.151647
0.157568
0.163317
0.168878
0.174233
0.179366
0.184261
0.188901
0.193269
0.19735
0.201129
0.204592
0.207725
0.210518
0.21296
0.215043
0.216763
0.218117
0.219107
0.219736
0.220013
0.219952
0.21957
0.218889
0.217938
0.216748
0.215357
0.213802
0.212125
0.210397
0.208553
0.206243
0.0311617
0.038007
0.044884
0.0517856
0.0587041
0.0656316
0.0725595
0.0794791
0.086381
0.0932556
0.100092
0.106881
0.113609
0.120265
0.126836
0.133309
0.139671
0.145906
0.152
0.157939
0.163704
0.169282
0.174655
0.179806
0.184719
0.189378
0.193765
0.197866
0.201664
0.205146
0.208297
0.211107
0.213564
0.215661
0.217391
0.218751
0.21974
0.220362
0.220622
0.22053
0.220101
0.219351
0.218304
0.216984
0.21542
0.213638
0.21167
0.209586
0.207277
0.204249
0.0312484
0.0381089
0.0450008
0.0519171
0.0588502
0.0657919
0.0727341
0.0796678
0.0865839
0.0934725
0.100323
0.107126
0.113868
0.120538
0.127124
0.133611
0.139987
0.146237
0.152346
0.158299
0.16408
0.169673
0.175061
0.180227
0.185155
0.189829
0.19423
0.198344
0.202155
0.205648
0.208809
0.211625
0.214087
0.216184
0.21791
0.219259
0.220231
0.220825
0.221045
0.220898
0.220396
0.21955
0.218378
0.216898
0.215133
0.213098
0.210818
0.208364
0.205583
0.201846
0.0313378
0.0382122
0.045118
0.0520481
0.0589947
0.0659501
0.0729058
0.079853
0.0867825
0.0936845
0.100549
0.107365
0.11412
0.120804
0.127403
0.133904
0.140294
0.146558
0.15268
0.158647
0.164441
0.170046
0.175446
0.180625
0.185564
0.190248
0.194659
0.198781
0.202598
0.206094
0.209256
0.212071
0.214526
0.216612
0.21832
0.219645
0.220582
0.221131
0.221293
0.221071
0.220474
0.21951
0.21819
0.21653
0.214543
0.212239
0.209636
0.206808
0.203563
0.199142
0.0314282
0.0383153
0.0452339
0.0521766
0.0591359
0.0661039
0.0730723
0.0800323
0.0869745
0.0938894
0.100766
0.107595
0.114364
0.12106
0.127672
0.134186
0.140588
0.146864
0.152999
0.158977
0.164782
0.170398
0.175808
0.180996
0.185943
0.190633
0.195049
0.199173
0.20299
0.206484
0.20964
0.212444
0.214884
0.216948
0.218627
0.219914
0.220804
0.221293
0.221381
0.221068
0.220359
0.219259
0.217777
0.215921
0.2137
0.211119
0.208191
0.204993
0.201298
0.196229
0.0315181
0.0384166
0.0453466
0.0523008
0.0592718
0.0662516
0.0732318
0.0802036
0.0871578
0.0940847
0.100974
0.107814
0.114595
0.121303
0.127927
0.134453
0.140866
0.147153
0.153299
0.159287
0.165101
0.170726
0.176143
0.181337
0.186289
0.190981
0.195398
0.19952
0.203332
0.206817
0.209959
0.212745
0.215161
0.217194
0.218835
0.220074
0.220904
0.221322
0.221322
0.220906
0.220072
0.218825
0.217169
0.215108
0.212648
0.209789
0.206539
0.20298
0.198856
0.19318
0.0316058
0.0385145
0.0454547
0.0524193
0.0594009
0.0663914
0.0733824
0.0803652
0.0873305
0.0942685
0.101169
0.108021
0.114812
0.121532
0.128166
0.134702
0.141126
0.147423
0.153577
0.159574
0.165396
0.171026
0.176449
0.181646
0.186599
0.191291
0.195703
0.199819
0.203621
0.207091
0.210215
0.212976
0.21536
0.217355
0.218948
0.22013
0.220892
0.221228
0.221132
0.220602
0.219636
0.218233
0.216396
0.214126
0.211426
0.208291
0.204727
0.200823
0.196294
0.190055
0.0316901
0.0386076
0.0455568
0.0525306
0.0595216
0.0665218
0.0735227
0.0805155
0.0874909
0.0944391
0.10135
0.108212
0.115014
0.121743
0.128387
0.134933
0.141366
0.147671
0.153833
0.159835
0.165663
0.171298
0.176723
0.18192
0.186872
0.19156
0.195965
0.20007
0.203857
0.207308
0.210407
0.213138
0.215485
0.217435
0.218974
0.220091
0.220778
0.221025
0.220825
0.220175
0.219069
0.217506
0.215486
0.213006
0.210068
0.206664
0.2028
0.198567
0.193659
0.186899
0.0317701
0.038695
0.0456518
0.0526337
0.059633
0.0666417
0.0736514
0.0806532
0.0876378
0.0945952
0.101515
0.108386
0.115197
0.121936
0.128589
0.135142
0.141583
0.147895
0.154063
0.160071
0.165902
0.171539
0.176964
0.18216
0.187107
0.191788
0.196183
0.200273
0.204042
0.20747
0.210539
0.213235
0.215539
0.217438
0.218918
0.219965
0.22057
0.220723
0.220415
0.21964
0.218392
0.216667
0.214463
0.211777
0.208607
0.204944
0.200792
0.19625
0.190988
0.183751
0.0318448
0.0387758
0.045739
0.0527276
0.0597341
0.0667503
0.0737677
0.0807774
0.0877701
0.0947357
0.101664
0.108543
0.115362
0.122109
0.128769
0.13533
0.141777
0.148094
0.154267
0.160278
0.166111
0.171748
0.177172
0.182363
0.187304
0.191974
0.196356
0.200429
0.204176
0.207576
0.210613
0.213269
0.215527
0.217371
0.218787
0.21976
0.22028
0.220335
0.219915
0.219013
0.217622
0.215736
0.213351
0.210463
0.207069
0.203158
0.198734
0.193901
0.188313
0.180639
0.0319135
0.0388493
0.0458176
0.0528118
0.0598242
0.0668467
0.0738708
0.0808874
0.0878871
0.0948599
0.101795
0.108682
0.115508
0.122261
0.128928
0.135494
0.141946
0.148268
0.154444
0.160457
0.16629
0.171926
0.177346
0.182531
0.187462
0.192121
0.196486
0.200539
0.204261
0.207631
0.210632
0.213245
0.215453
0.217239
0.218588
0.219485
0.219916
0.219872
0.219339
0.21831
0.216776
0.214731
0.212169
0.209086
0.205477
0.201331
0.196651
0.191549
0.185658
0.177586
0.0319758
0.0389151