/*--------------------------------*- C++ -*----------------------------------*\
| =========                 |                                                 |
| \\      /  F ield         | OpenFOAM: The Open Source CFD Toolbox           |
|  \\    /   O peration     | Version:                                        |
|   \\  /    A nd           | Website:  www.openfoam.com                      |
|    \\/     M anipulation  |                                                 |
\*---------------------------------------------------------------------------*/
FoamFile
{
    version     2.0;
    format      ascii;
    class       volScalarField;
    location    "0.05";
    object      p;
}
// * * * * * * * * * * * * * * * * * * * * * * * * * * * * * * * * * * * * * //

dimensions      [0 2 -2 0 0 0 0];


internalField   nonuniform List<scalar> 
125000
(
0.0556447
0.059231
0.0628027
0.0663498
0.0698622
0.0733294
0.076741
0.0800866
0.0833559
0.0865388
0.0896252
0.0926054
0.0954697
0.098209
0.100814
0.103277
0.105589
0.107742
0.109731
0.111547
0.113186
0.114643
0.115912
0.11699
0.117874
0.118563
0.119054
0.119348
0.119446
0.119351
0.119066
0.118598
0.117953
0.117141
0.116171
0.115058
0.113817
0.112465
0.111024
0.109517
0.107973
0.106424
0.104908
0.103467
0.102149
0.101011
0.100109
0.0994997
0.0992386
0.0993267
0.0556333
0.059219
0.0627902
0.0663367
0.0698485
0.0733151
0.0767262
0.0800713
0.0833401
0.0865226
0.0896086
0.0925885
0.0954526
0.0981916
0.100797
0.103259
0.105571
0.107725
0.109713
0.11153
0.11317
0.114626
0.115896
0.116974
0.117859
0.118548
0.11904
0.119335
0.119434
0.119339
0.119056
0.118588
0.117944
0.117133
0.116164
0.115052
0.113812
0.112461
0.111021
0.109515
0.107972
0.106424
0.104909
0.103468
0.102151
0.101013
0.100111
0.0995022
0.099241
0.0993289
0.0556126
0.0591971
0.062767
0.0663124
0.069823
0.0732886
0.0766986
0.0800427
0.0833106
0.0864922
0.0895775
0.0925567
0.0954203
0.0981589
0.100764
0.103226
0.105538
0.107692
0.109681
0.111498
0.113138
0.114595
0.115866
0.116945
0.117831
0.118521
0.119014
0.11931
0.119411
0.119318
0.119036
0.118571
0.117929
0.117119
0.116153
0.115043
0.113805
0.112456
0.111018
0.109514
0.107973
0.106427
0.104912
0.103473
0.102157
0.101019
0.100118
0.099509
0.0992476
0.0993351
0.0555826
0.0591652
0.0627333
0.066277
0.0697859
0.0732498
0.0766582
0.0800008
0.0832673
0.0864477
0.0895318
0.09251
0.0953728
0.0981107
0.100715
0.103177
0.105489
0.107643
0.109632
0.11145
0.113091
0.114549
0.115821
0.116902
0.117789
0.118481
0.118976
0.119274
0.119377
0.119287
0.119008
0.118545
0.117906
0.1171
0.116137
0.11503
0.113795
0.112449
0.111014
0.109513
0.107975
0.106431
0.104919
0.103481
0.102167
0.10103
0.100129
0.0995203
0.0992585
0.0993456
0.0555435
0.0591236
0.0626892
0.0662304
0.0697371
0.0731987
0.076605
0.0799456
0.0832102
0.0863889
0.0894715
0.0924484
0.09531
0.0980472
0.100651
0.103113
0.105424
0.107579
0.109569
0.111387
0.113029
0.114489
0.115762
0.116845
0.117734
0.118428
0.118926
0.119227
0.119333
0.119246
0.118971
0.118512
0.117877
0.117075
0.116116
0.115013
0.113782
0.112441
0.111009
0.109512
0.107978
0.106437
0.104928
0.103493
0.10218
0.101044
0.100144
0.0995359
0.0992739
0.0993604
0.0554954
0.0590723
0.0626348
0.0661729
0.0696766
0.0731354
0.076539
0.0798771
0.0831394
0.0863159
0.0893966
0.0923718
0.095232
0.097968
0.100571
0.103032
0.105344
0.107498
0.109489
0.111308
0.112951
0.114413
0.115688
0.116773
0.117665
0.118362
0.118863
0.119168
0.119278
0.119195
0.118924
0.118471
0.11784
0.117043
0.116089
0.114992
0.113766
0.11243
0.111004
0.109512
0.107981
0.106445
0.104939
0.103507
0.102197
0.101063
0.100164
0.0995559
0.0992935
0.0993793
0.0554383
0.0590114
0.0625701
0.0661046
0.0696046
0.07306
0.0764603
0.0797953
0.0830547
0.0862286
0.0893069
0.0922801
0.0951386
0.0978732
0.100475
0.102936
0.105247
0.107402
0.109393
0.111214
0.112858
0.114321
0.115599
0.116687
0.117582
0.118283
0.118787
0.119097
0.119211
0.119134
0.118869
0.11842
0.117796
0.117005
0.116058
0.114967
0.113747
0.112417
0.110997
0.109511
0.107986
0.106454
0.104953
0.103525
0.102218
0.101086
0.100188
0.0995802
0.0993173
0.0994022
0.0553726
0.0589411
0.0624953
0.0660254
0.0695212
0.0729725
0.0763689
0.0797002
0.0829563
0.086127
0.0892026
0.0921733
0.0950297
0.0977626
0.100363
0.102823
0.105134
0.107289
0.109281
0.111103
0.112749
0.114215
0.115495
0.116586
0.117484
0.118189
0.118699
0.119013
0.119133
0.119062
0.118803
0.118361
0.117744
0.11696
0.11602
0.114937
0.113725
0.112402
0.110989
0.109509
0.107991
0.106465
0.104969
0.103546
0.102242
0.101113
0.100216
0.0996087
0.0993453
0.0994292
0.0552985
0.0588616
0.0624106
0.0659356
0.0694265
0.072873
0.0762649
0.079592
0.082844
0.0860111
0.0890834
0.0920512
0.0949052
0.0976361
0.100235
0.102694
0.105005
0.10716
0.109152
0.110976
0.112624
0.114092
0.115375
0.116469
0.117372
0.118082
0.118597
0.118917
0.119043
0.118979
0.118727
0.118293
0.117684
0.116908
0.115977
0.114902
0.113698
0.112384
0.110979
0.109507
0.107996
0.106478
0.104988
0.103569
0.102269
0.101143
0.100248
0.0996414
0.0993774
0.0994601
0.0552161
0.0587732
0.0623163
0.0658354
0.0693207
0.0727617
0.0761484
0.0794705
0.082718
0.0858809
0.0889494
0.0919139
0.0947649
0.0974936
0.100091
0.102549
0.104859
0.107014
0.109007
0.110832
0.112482
0.113952
0.115239
0.116337
0.117245
0.11796
0.11848
0.118807
0.118941
0.118884
0.118641
0.118215
0.117615
0.116849
0.115927
0.114861
0.113668
0.112363
0.110967
0.109504
0.108002
0.106491
0.105008
0.103595
0.1023
0.101177
0.100284
0.099678
0.0994135
0.0994948
0.055126
0.0586762
0.0622125
0.065725
0.0692038
0.0726387
0.0760194
0.079336
0.0825782
0.0857363
0.0888005
0.0917611
0.0946089
0.0973348
0.0999301
0.102386
0.104696
0.106851
0.108845
0.110671
0.112323
0.113796
0.115086
0.116189
0.117102
0.117823
0.11835
0.118684
0.118826
0.118777
0.118543
0.118127
0.117537
0.116781
0.11587
0.114815
0.113632
0.112338
0.110953
0.1095
0.108007
0.106505
0.105029
0.103623
0.102334
0.101215
0.100324
0.0997186
0.0994534
0.0995332
0.0550283
0.0585708
0.0620995
0.0656046
0.0690762
0.0725041
0.0758782
0.0791884
0.0824248
0.0855774
0.0886366
0.0915929
0.0944369
0.0971597
0.0997525
0.102207
0.104516
0.10667
0.108665
0.110492
0.112147
0.113623
0.114917
0.116025
0.116943
0.11767
0.118205
0.118546
0.118697
0.118658
0.118434
0.118029
0.11745
0.116705
0.115805
0.114763
0.113591
0.112309
0.110935
0.109494
0.108011
0.106519
0.105052
0.103654
0.10237
0.101256
0.100368
0.0997629
0.099497
0.0995753
0.0549236
0.0584575
0.0619777
0.0654745
0.068938
0.0723581
0.0757247
0.0790279
0.0822576
0.0854042
0.0884578
0.0914091
0.0942489
0.0969681
0.0995581
0.102011
0.104318
0.106472
0.108467
0.110296
0.111953
0.113433
0.114731
0.115843
0.116768
0.117501
0.118044
0.118394
0.118554
0.118525
0.118312
0.117918
0.117352
0.11662
0.115733
0.114703
0.113545
0.112276
0.110915
0.109486
0.108015
0.106533
0.105076
0.103686
0.102409
0.101299
0.100415
0.0998108
0.0995443
0.0996208
0.0548122
0.0583365
0.0618473
0.0653349
0.0687894
0.0722009
0.0755592
0.0788545
0.0820769
0.0852166
0.0882641
0.0912098
0.0940447
0.0967598
0.0993465
0.101797
0.104102
0.106256
0.108251
0.110082
0.111741
0.113224
0.114526
0.115644
0.116575
0.117316
0.117867
0.118226
0.118396
0.118379
0.118177
0.117796
0.117243
0.116524
0.115652
0.114636
0.113492
0.112237
0.11089
0.109475
0.108017
0.106547
0.105101
0.10372
0.10245
0.101346
0.100465
0.0998622
0.099595
0.0996696
0.0546946
0.0582084
0.0617088
0.0651862
0.0686309
0.0720328
0.0753819
0.0786685
0.0818827
0.0850148
0.0880553
0.0909948
0.0938242
0.0965346
0.0991176
0.101565
0.103869
0.106022
0.108017
0.109849
0.11151
0.112997
0.114304
0.115427
0.116365
0.117114
0.117673
0.118043
0.118224
0.118218
0.118029
0.117662
0.117122
0.116419
0.115561
0.114561
0.113433
0.112193
0.110862
0.109461
0.108017
0.10656
0.105125
0.103755
0.102494
0.101395
0.100518
0.0999168
0.099649
0.0997215
0.0545714
0.0580736
0.0615626
0.0650288
0.0684626
0.0718539
0.075193
0.0784699
0.0816751
0.0847988
0.0878315
0.0907641
0.0935873
0.0962926
0.0988712
0.101315
0.103617
0.105769
0.107764
0.109596
0.11126
0.11275
0.114062
0.115191
0.116136
0.116893
0.117462
0.117842
0.118035
0.118041
0.117866
0.117513
0.116989
0.116302
0.11546
0.114477
0.113366
0.112143
0.110828
0.109443
0.108014
0.106572
0.10515
0.10379
0.102538
0.101447
0.100574
0.0999746
0.0997061
0.0997763
0.054443
0.0579326
0.0614091
0.0648631
0.0682849
0.0716647
0.0749926
0.078259
0.0814542
0.0845686
0.0875928
0.0905176
0.0933341
0.0960334
0.0986072
0.101047
0.103346
0.105497
0.107492
0.109325
0.110991
0.112484
0.113801
0.114936
0.115888
0.116654
0.117233
0.117624
0.117829
0.117849
0.117688
0.117351
0.116843
0.116173
0.115349
0.114384
0.11329
0.112086
0.110788
0.109421
0.108009
0.106582
0.105174
0.103827
0.102585
0.101501
0.100632
0.100035
0.0997661
0.0998339
0.05431
0.0577858
0.0612488
0.0646894
0.0680982
0.0714654
0.0747812
0.078036
0.0812202
0.0843244
0.0873392
0.0902554
0.0930643
0.095757
0.0983252
0.100761
0.103057
0.105205
0.1072
0.109034
0.110702
0.112198
0.11352
0.114661
0.115621
0.116396
0.116985
0.117388
0.117606
0.11764
0.117495
0.117174
0.116683
0.116031
0.115226
0.11428
0.113206
0.112021
0.110742
0.109394
0.107999
0.106589
0.105197
0.103863
0.102632
0.101556
0.100693
0.100098
0.0998287
0.099894
0.0541732
0.057634
0.0610822
0.0645083
0.0679029
0.0712563
0.0745589
0.0778011
0.0809733
0.0840663
0.0870707
0.0899775
0.0927779
0.0954633
0.0980253
0.100456
0.102748
0.104894
0.106887
0.108722
0.110392
0.111892
0.113218
0.114366
0.115333
0.116117
0.116717
0.117132
0.117364
0.117413
0.117284
0.11698
0.116508
0.115875
0.11509
0.114165
0.113112
0.111947
0.11069
0.109361
0.107986
0.106594
0.105218
0.103898
0.102679
0.101613
0.100756
0.100164
0.0998938
0.0999563
0.0540331
0.0574778
0.0609099
0.0643203
0.0676995
0.071038
0.0743261
0.0775546
0.0807138
0.0837945
0.0867876
0.089684
0.092475
0.0951522
0.0977073
0.100132
0.10242
0.104563
0.106555
0.108389
0.110061
0.111564
0.112895
0.11405
0.115025
0.115818
0.116429
0.116857
0.117103
0.117168
0.117056
0.116771
0.116318
0.115705
0.114941
0.114037
0.113006
0.111864
0.110629
0.109322
0.107967
0.106595
0.105237
0.103933
0.102727
0.101671
0.100821
0.100232
0.0999611
0.100021
0.0538905
0.0573177
0.0607325
0.0641259
0.0674884
0.0708107
0.0740833
0.0772968
0.0804418
0.0835092
0.0864898
0.0893749
0.0921556
0.0948237
0.097371
0.0997897
0.102072
0.104212
0.106202
0.108036
0.109709
0.111215
0.11255
0.113711
0.114695
0.115498
0.116121
0.116562
0.116822
0.116904
0.116809
0.116543
0.116111
0.11552
0.114778
0.113897
0.11289
0.111771
0.110559
0.109275
0.107943
0.106591
0.105253
0.103966
0.102774
0.101729
0.100887
0.100301
0.10003
0.100087
0.0537462
0.0571545
0.0605507
0.0639257
0.0672703
0.0705751
0.0738308
0.0770281
0.0801577
0.0832106
0.0861777
0.0890503
0.0918198
0.0944779
0.0970166
0.099428
0.101705
0.10384
0.105828
0.107661
0.109335
0.110844
0.112184
0.113351
0.114342
0.115156
0.11579
0.116245
0.116521
0.116619
0.116543
0.116297
0.115886
0.115317
0.1146
0.113743
0.11276
0.111667
0.11048
0.109221
0.107912
0.106583
0.105265
0.103996
0.102821
0.101788
0.100953
0.100372
0.100101
0.100154
0.053601
0.056989
0.0603651
0.0637204
0.0670456
0.0703316
0.0735692
0.076749
0.0798619
0.0828991
0.0858515
0.0887105
0.0914677
0.0941148
0.0966438
0.0990472
0.101318
0.103448
0.105432
0.107264
0.108938
0.11045
0.111794
0.112967
0.113967
0.114791
0.115437
0.115906
0.116197
0.116313
0.116257
0.116032
0.115643
0.115098
0.114405
0.113574
0.112618
0.111551
0.11039
0.109157
0.107874
0.106569
0.105273
0.104024
0.102865
0.101846
0.10102
0.100443
0.100173
0.100223
0.0534556
0.0568219
0.0601765
0.0635106
0.0668151
0.0700809
0.0732988
0.0764598
0.0795548
0.082575
0.0855115
0.0883558
0.0910995
0.0937345
0.0962529
0.0986473
0.10091
0.103035
0.105016
0.106846
0.10852
0.110033
0.111381
0.112561
0.113568
0.114402
0.115061
0.115544
0.115852
0.115986
0.115949
0.115746
0.11538
0.11486
0.114193
0.113389
0.11246
0.111421
0.110289
0.109083
0.107827
0.106548
0.105276
0.104048
0.102908
0.101903
0.101087
0.100516
0.100246
0.100293
0.0533109
0.056654
0.0599856
0.0632971
0.0665794
0.0698235
0.0730205
0.0761612
0.0792369
0.0822387
0.085158
0.0879864
0.0907155
0.0933373
0.0958441
0.0982284
0.100483
0.102602
0.104577
0.106405
0.108078
0.109593
0.110945
0.11213
0.113146
0.11399
0.114661
0.115158
0.115483
0.115636
0.11562
0.115438
0.115097
0.114603
0.113963
0.113187
0.112287
0.111278
0.110175
0.108999
0.107772
0.106519
0.105273
0.104068
0.102948
0.101958
0.101154
0.100588
0.100319
0.100362
0.0531679
0.0564862
0.0597934
0.0630806
0.0663392
0.0695602
0.0727347
0.0758538
0.0789087
0.0818908
0.0847916
0.0876027
0.0903159
0.0929234
0.0954174
0.0977907
0.100036
0.102147
0.104118
0.105942
0.107614
0.10913
0.110485
0.111676
0.112699
0.113553
0.114236
0.114749
0.11509
0.115262
0.115267
0.115109
0.114793
0.114325
0.113713
0.112967
0.112098
0.111119
0.110048
0.108903
0.107706
0.106482
0.105263
0.104083
0.102984
0.102012
0.101219
0.100661
0.100392
0.100432
0.0530275
0.0563195
0.0596005
0.0628621
0.0660954
0.0692917
0.0724422
0.0755381
0.0785709
0.0815319
0.0844128
0.0872053
0.0899013
0.0924932
0.0949733
0.0973344
0.0995696
0.101672
0.103637
0.105456
0.107127
0.108643
0.110001
0.111197
0.112228
0.113092
0.113787
0.114314
0.114673
0.114864
0.114891
0.114757
0.114466
0.114026
0.113444
0.112728
0.111891
0.110945
0.109906
0.108794
0.107629
0.106436
0.105246
0.104092
0.103016
0.102062
0.101283
0.100732
0.100465
0.100502
0.0528905
0.0561546
0.059408
0.0626422
0.0658487
0.0690187
0.0721437
0.075215
0.0782241
0.0811626
0.0840221
0.0867946
0.0894722
0.0920472
0.0945121
0.0968599
0.0990837
0.101177
0.103134
0.104949
0.106617
0.108133
0.109493
0.110693
0.111731
0.112605
0.113313
0.113854
0.11423
0.114441
0.11449
0.114381
0.114117
0.113705
0.113153
0.112469
0.111665
0.110753
0.109749
0.108671
0.107539
0.10638
0.10522
0.104095
0.103043
0.102109
0.101345
0.100802
0.100538
0.100571
0.052758
0.0559926
0.0592167
0.062422
0.0656001
0.0687423
0.0718402
0.0748853
0.0778692
0.0807836
0.0836204
0.0863715
0.0890293
0.091586
0.0940345
0.0963678
0.0985791
0.100662
0.102611
0.10442
0.106084
0.107599
0.10896
0.110165
0.11121
0.112093
0.112813
0.113369
0.113762
0.113994
0.114065
0.11398
0.113744
0.113361
0.11284
0.11219
0.11142
0.110543
0.109575
0.108533
0.107437
0.106312
0.105185
0.104089
0.103064
0.102152
0.101404
0.100871
0.100609
0.100638
0.052631
0.0558344
0.0590276
0.0622024
0.0653504
0.0684632
0.0715325
0.0745498
0.077507
0.0803959
0.0832084
0.0859367
0.0885732
0.0911105
0.0935412
0.0958587
0.0980562
0.100128
0.102067
0.103869
0.105529
0.107042
0.108404
0.109612
0.110664
0.111556
0.112288
0.112859
0.113269
0.11352
0.113615
0.113555
0.113346
0.112994
0.112505
0.111888
0.111154
0.110314
0.109383
0.108379
0.10732
0.106232
0.105139
0.104076
0.103078
0.102189
0.101459
0.100937
0.100678
0.100704
0.0525103
0.055681
0.0588417
0.0619844
0.0651007
0.0681826
0.0712216
0.0742096
0.0771385
0.0800003
0.0827871
0.0854912
0.0881051
0.0906214
0.0930331
0.0953335
0.0975161
0.0995748
0.101504
0.103298
0.104953
0.106463
0.107825
0.109036
0.110093
0.110993
0.111737
0.112322
0.11275
0.113021
0.113138
0.113105
0.112924
0.112603
0.112147
0.111565
0.110867
0.110065
0.109173
0.108208
0.107189
0.106138
0.105082
0.104052
0.103085
0.102222
0.10151
0.101
0.100745
0.100768
0.0523969
0.0555333
0.05866
0.0617689
0.0648521
0.0679014
0.0709086
0.0738658
0.0767649
0.0795982
0.0823578
0.0850361
0.0876259
0.0901199
0.0925112
0.0947932
0.0969596
0.0990044
0.100922
0.102707
0.104355
0.105862
0.107223
0.108436
0.109498
0.110407
0.111161
0.11176
0.112205
0.112497
0.112637
0.112629
0.112477
0.112187
0.111764
0.111218
0.110558
0.109795
0.108944
0.10802
0.107041
0.10603
0.105013
0.104019
0.103083
0.102247
0.101556
0.101059
0.100809
0.100829
0.0522918
0.0553924
0.0584834
0.0615572
0.0646056
0.0676208
0.0705947
0.0735196
0.0763874
0.0791906
0.0819215
0.0845727
0.087137
0.0896073
0.0919769
0.0942392
0.0963881
0.0984178
0.100323
0.102098
0.103739
0.10524
0.1066
0.107814
0.10888
0.109796
0.110561
0.111174
0.111635
0.111947
0.11211
0.112128
0.112005
0.111746
0.111358
0.110848
0.110227
0.109505
0.108695
0.107813
0.106877
0.105908
0.10493
0.103974
0.103072
0.102265
0.101597
0.101115
0.10087
0.100887
0.0521958
0.0552591
0.0583131
0.0613502
0.0643624
0.067342
0.0702812
0.0731723
0.0760074
0.0787791
0.0814799
0.0841026
0.08664
0.0890852
0.0914316
0.093673
0.0958031
0.0978164
0.0997075
0.101471
0.103103
0.1046
0.105957
0.107171
0.10824
0.109163
0.109938
0.110564
0.111042
0.111372
0.111558
0.111602
0.111508
0.111281
0.110928
0.110455
0.109873
0.109192
0.108425
0.107586
0.106694
0.105769
0.104834
0.103917
0.103051
0.102275
0.101631
0.101165
0.100927
0.100941
0.0521098
0.0551345
0.0581501
0.061149
0.0641237
0.0670664
0.0699695
0.0728254
0.0756264
0.0783653
0.0810346
0.0836274
0.0861365
0.0885554
0.0908774
0.0930965
0.0952066
0.0972023
0.0990783
0.10083
0.102452
0.103942
0.105295
0.106509
0.107581
0.108509
0.109292
0.109931
0.110425
0.110775
0.110983
0.111053
0.110987
0.110792
0.110474
0.110039
0.109497
0.108858
0.108134
0.107341
0.106494
0.105613
0.104722
0.103847
0.10302
0.102276
0.101659
0.10121
0.10098
0.100991
0.0520346
0.0550194
0.0579953
0.060955
0.0638908
0.0667954
0.0696611
0.0724805
0.0752462
0.0779509
0.0805876
0.0831491
0.0856288
0.08802
0.0903164
0.092512
0.0946009
0.0965778
0.0984375
0.100175
0.101787
0.103269
0.104617
0.105829
0.106903
0.107836
0.108628
0.109278
0.109787
0.110155
0.110385
0.11048
0.110444
0.110281
0.109997
0.1096
0.109098
0.108502
0.107823
0.107075
0.106275
0.105441
0.104595
0.103764
0.102976
0.102268
0.101678
0.101249
0.101028
0.101037
0.0519708
0.0549146
0.0578498
0.0607691
0.0636651
0.0665304
0.0693576
0.0721394
0.0748687
0.0775382
0.080141
0.0826702
0.0851193
0.0874817
0.0897513
0.0919222
0.0939887
0.0959456
0.0977879
0.099511
0.101111
0.102584
0.103926
0.105135
0.106209
0.107146
0.107946
0.108607
0.10913
0.109516
0.109768
0.109888
0.109879
0.109748
0.109499
0.10914
0.108678
0.108125
0.107491
0.10679
0.106037
0.105251
0.104453
0.103666
0.10292
0.102249
0.101689
0.101281
0.10107
0.101078
0.0519189
0.054821
0.0577147
0.0605927
0.0634479
0.0662731
0.0690609
0.0718043
0.0744961
0.0771294
0.0796974
0.0821933
0.0846108
0.0869434
0.0891852
0.0913303
0.0933734
0.0953092
0.097133
0.0988403
0.100427
0.10189
0.103225
0.104431
0.105504
0.106444
0.10725
0.107921
0.108457
0.10886
0.109133
0.109277
0.109296
0.109196
0.108981
0.10866
0.108239
0.107729
0.10714
0.106486
0.105782
0.105044
0.104294
0.103554
0.102852
0.102219
0.101691
0.101306
0.101107
0.101113
0.0518795
0.0547392
0.0575907
0.060427
0.0632408
0.0660251
0.0687729
0.0714772
0.0741309
0.0767273
0.0792597
0.0817216
0.0841066
0.0864086
0.0886217
0.0907402
0.0927589
0.0946728
0.0964771
0.0981676
0.0997404
0.101192
0.10252
0.10372
0.104792
0.105734
0.106545
0.107224
0.107773
0.108192
0.108484
0.108651
0.108698
0.108628
0.108447
0.108162
0.107782
0.107314
0.106771
0.106165
0.105509
0.104821
0.10412
0.103428
0.10277
0.102178
0.101684
0.101323
0.101137
0.101143
0.0518527
0.0546699
0.057479
0.0602731
0.0630453
0.0657885
0.068496
0.0711607
0.0737759
0.076335
0.0788314
0.0812587
0.0836107
0.0858815
0.0880652
0.0901565
0.0921501
0.0940412
0.0958252
0.0974981
0.099056
0.100496
0.101814
0.103009
0.104078
0.10502
0.105835
0.106522
0.107082
0.107517
0.107827
0.108016
0.108088
0.108048
0.1079
0.107651
0.10731
0.106885
0.106387
0.105828
0.105221
0.104583
0.103932
0.103288
0.102676
0.102126
0.101667
0.101333
0.10116
0.101168
0.0518385
0.0546133
0.0573802
0.0601324
0.062863
0.0655653
0.0682324
0.0708577
0.0734344
0.0759561
0.0784164
0.0808089
0.0831277
0.085367
0.087521
0.0895846
0.0915526
0.0934204
0.0951835
0.096838
0.0983802
0.0998069
0.101115
0.102303
0.103369
0.104311
0.105129
0.105822
0.106392
0.10684
0.107167
0.107377
0.107474
0.107461
0.107345
0.107132
0.106829
0.106446
0.105992
0.105479
0.104921
0.104332
0.10373
0.103135
0.102571
0.102062
0.10164
0.101334
0.101177
0.101187
0.0518367
0.0545698
0.0572952
0.0600061
0.0626958
0.0653577
0.0679851
0.0705714
0.0731101
0.0755948
0.0780192
0.0803772
0.082663
0.0848709
0.0869953
0.0890311
0.0909734
0.0928176
0.0945594
0.0961951
0.097721
0.0991341
0.100432
0.101612
0.102673
0.103613
0.104433
0.105132
0.10571
0.10617
0.106513
0.106742
0.106862
0.106876
0.10679
0.10661
0.106344
0.106001
0.105589
0.105122
0.104611
0.104071
0.103518
0.102972
0.102455
0.101989
0.101604
0.101327
0.101188
0.1012
0.0518467
0.0545394
0.0572245
0.0598955
0.0625456
0.0651683
0.0677571
0.0703055
0.0728072
0.0752558
0.0776453
0.0799696
0.0822231
0.0844001
0.0864953
0.0885037
0.0904205
0.0922413
0.0939618
0.0955785
0.0970879
0.098487
0.0997734
0.100945
0.102
0.102938
0.103758
0.104461
0.105047
0.105517
0.105874
0.106121
0.106262
0.1063
0.106242
0.106094
0.105863
0.105557
0.105187
0.104763
0.104298
0.103805
0.1033
0.102802
0.102331
0.101908
0.101561
0.101313
0.101192
0.101207
0.0518672
0.0545217
0.0571687
0.0598017
0.0624142
0.0649997
0.0675518
0.0700642
0.0725306
0.0749449
0.077301
0.0795931
0.0818155
0.0839629
0.08603
0.0880119
0.089904
0.0917019
0.0934016
0.0949995
0.0964924
0.0978774
0.0991522
0.100315
0.101364
0.102298
0.103118
0.103823
0.104414
0.104894
0.105263
0.105526
0.105685
0.105746
0.105713
0.105594
0.105395
0.105125
0.104793
0.10441
0.103988
0.10354
0.103082
0.102629
0.102202
0.101822
0.101511
0.101293
0.10119
0.10121
0.0518966
0.054516
0.0571279
0.0597259
0.0623038
0.064855
0.0673732
0.0698523
0.0722861
0.0746685
0.0769936
0.0792558
0.0814494
0.0835691
0.0856099
0.0875669
0.0894356
0.0912118
0.0928917
0.0944716
0.0959486
0.0973198
0.098583
0.0997365
0.100779
0.101709
0.102527
0.103234
0.103829
0.104316
0.104695
0.104971
0.105147
0.105227
0.105217
0.105124
0.104954
0.104716
0.104419
0.104074
0.103692
0.103286
0.10287
0.10246
0.102076
0.101735
0.101459
0.101268
0.101183
0.101208
0.0519325
0.0545209
0.0571019
0.0596692
0.0622164
0.0647373
0.0672257
0.0696754
0.0720802
0.0744344
0.076732
0.0789674
0.0811352
0.0832302
0.0852473
0.0871819
0.0890296
0.0907861
0.0924478
0.0940113
0.0954734
0.0968317
0.098084
0.0992284
0.100264
0.10119
0.102006
0.102712
0.10331
0.103802
0.10419
0.104476
0.104665
0.104762
0.104772
0.104701
0.104556
0.104346
0.10408
0.103768
0.103421
0.103052
0.102674
0.102304
0.101957
0.101653
0.101409
0.101243
0.101174
0.101203
0.0519713
0.0545343
0.0570899
0.0596319
0.062154
0.06465
0.0671137
0.0695391
0.07192
0.0742507
0.0765255
0.0787387
0.080885
0.0829593
0.0849566
0.0868723
0.0887021
0.0904419
0.0920881
0.0936373
0.0950867
0.0964335
0.0976759
0.0988122
0.0998411
0.100762
0.101575
0.102281
0.102881
0.103376
0.103769
0.104064
0.104263
0.104373
0.104398
0.104345
0.10422
0.104033
0.103792
0.103508
0.103191
0.102853
0.102508
0.102171
0.101857
0.101583
0.101366
0.101222
0.101165
0.101196
0.0520082
0.0545528
0.0570901
0.0596138
0.0621176
0.0645955
0.0670412
0.0694488
0.0718123
0.0741258
0.0763838
0.0785806
0.080711
0.0827699
0.0847524
0.0866539
0.0884703
0.0901974
0.0918318
0.09337
0.0948093
0.0961472
0.0973816
0.0985111
0.0995346
0.100451
0.101262
0.101966
0.102566
0.103063
0.103459
0.103759
0.103965
0.104084
0.104119
0.104079
0.103969
0.103799
0.103577
0.103313
0.103018
0.102705
0.102386
0.102074
0.101786
0.101536
0.101339
0.10121
0.10116
0.101189
0.0520366
0.0545721
0.0571004
0.0596151
0.0621098
0.0645787
0.0670154
0.069414
0.0717686
0.0740734
0.0763227
0.0785111
0.0806332
0.082684
0.0846587
0.0865527
0.0883617
0.0900819
0.0917096
0.0932416
0.0946751
0.0960077
0.0972373
0.0983625
0.0993822
0.100296
0.101104
0.101807
0.102405
0.102902
0.103299
0.103601
0.10381
0.103932
0.103973
0.103938
0.103836
0.103675
0.103462
0.10321
0.102928
0.102629
0.102324
0.102029
0.101756
0.10152
0.101336
0.101214
0.101164
0.101183
0.0520498
0.054588
0.057119
0.0596363
0.0621336
0.0646049
0.067044
0.0694449
0.0718017
0.0741085
0.0763597
0.0785498
0.0806734
0.0827256
0.0847015
0.0865965
0.0884064
0.0901272
0.0917553
0.0932874
0.0947208
0.096053
0.0972821
0.0984064
0.0994252
0.100338
0.101144
0.101845
0.102442
0.102937
0.103332
0.103631
0.103838
0.103957
0.103995
0.103959
0.103854
0.103691
0.103477
0.103223
0.10294
0.10264
0.102337
0.102042
0.101771
0.101538
0.101355
0.101232
0.101177
0.101181
0.0554619
0.0588802
0.0622845
0.0656656
0.0690139
0.0723192
0.0755717
0.0787614
0.0818787
0.084914
0.0878579
0.0907011
0.0934347
0.0960499
0.0985385
0.100892
0.103104
0.105167
0.107074
0.108819
0.110398
0.111805
0.113037
0.114091
0.114963
0.115653
0.11616
0.116483
0.116625
0.116588
0.116377
0.115998
0.115457
0.114764
0.113929
0.112965
0.111887
0.110713
0.109462
0.108157
0.106823
0.10549
0.104191
0.102963
0.101846
0.100883
0.100117
0.0995842
0.0993339
0.0994175
0.055451
0.0588687
0.0622726
0.0656532
0.0690009
0.0723057
0.0755577
0.078747
0.0818639
0.0848988
0.0878423
0.0906852
0.0934185
0.0960336
0.098522
0.100876
0.103088
0.10515
0.107057
0.108803
0.110382
0.11179
0.113022
0.114076
0.114949
0.11564
0.116147
0.116471
0.116613
0.116578
0.116367
0.115989
0.115449
0.114757
0.113922
0.11296
0.111883
0.11071
0.109459
0.108155
0.106822
0.10549
0.104192
0.102964
0.101848
0.100885
0.100119
0.0995865
0.0993361
0.0994195
0.0554313
0.0588479
0.0622507
0.0656302
0.0689769
0.0722807
0.0755317
0.07872
0.0818361
0.0848702
0.0878131
0.0906554
0.0933882
0.0960029
0.0984911
0.100845
0.103057
0.105119
0.107027
0.108773
0.110352
0.111761
0.112994
0.114049
0.114923
0.115614
0.116122
0.116448
0.116592
0.116558
0.116349
0.115973
0.115434
0.114744
0.113912
0.112951
0.111876
0.110705
0.109456
0.108154
0.106822
0.105492
0.104195
0.102969
0.101853
0.100891
0.100125
0.099593
0.0993424
0.0994255
0.0554029
0.0588178
0.0622189
0.0655968
0.0689419
0.0722441
0.0754937
0.0786807
0.0817954
0.0848284
0.0877702
0.0906116
0.0933437
0.0959579
0.0984456
0.100799
0.103011
0.105074
0.106982
0.108729
0.110309
0.111718
0.112953
0.114009
0.114884
0.115577
0.116087
0.116415
0.116561
0.116529
0.116323
0.115949
0.115414
0.114726
0.113897
0.112939
0.111867
0.110699
0.109453
0.108153
0.106824
0.105496
0.104201
0.102976
0.101862
0.100901
0.100135
0.0996036
0.0993529
0.0994356
0.0553659
0.0587785
0.0621773
0.065553
0.0688959
0.0721961
0.0754437
0.0786288
0.0817419
0.0847733
0.0877138
0.090554
0.0932851
0.0958984
0.0983857
0.100739
0.102951
0.105014
0.106922
0.10867
0.110251
0.111662
0.112898
0.113956
0.114833
0.115528
0.116041
0.116371
0.11652
0.116491
0.116289
0.115918
0.115387
0.114703
0.113877
0.112924
0.111856
0.110691
0.109449
0.108152
0.106826
0.105501
0.104209
0.102987
0.101874
0.100914
0.10015
0.0996184
0.0993676
0.0994498
0.0553204
0.0587301
0.062126
0.0654989
0.0688391
0.0721367
0.0753818
0.0785646
0.0816755
0.084705
0.0876436
0.0904824
0.0932122
0.0958245
0.098311
0.100664
0.102876
0.104939
0.106848
0.108597
0.110179
0.111591
0.112829
0.113889
0.114769
0.115467
0.115983
0.116316
0.116469
0.116444
0.116246
0.11588
0.115353
0.114674
0.113853
0.112904
0.111841
0.110681
0.109443
0.108151
0.10683
0.105508
0.10422
0.103
0.10189
0.100932
0.100168
0.0996372
0.0993864
0.0994679
0.0552665
0.0586726
0.062065
0.0654346
0.0687715
0.0720659
0.075308
0.078488
0.0815963
0.0846233
0.0875599
0.0903967
0.093125
0.0957361
0.0982217
0.100574
0.102786
0.104849
0.106759
0.108508
0.110093
0.111507
0.112747
0.113809
0.114692
0.115393
0.115913
0.11625
0.116408
0.116388
0.116195
0.115834
0.115312
0.114639
0.113824
0.112881
0.111824
0.110669
0.109437
0.10815
0.106834
0.105517
0.104232
0.103016
0.101909
0.100953
0.100191
0.0996602
0.0994092
0.0994899
0.0552044
0.0586064
0.0619947
0.0653602
0.0686932
0.0719839
0.0752224
0.078399
0.0815042
0.0845284
0.0874624
0.090297
0.0930234
0.095633
0.0981175
0.100469
0.102681
0.104745
0.106655
0.108406
0.109991
0.111407
0.11265
0.113716
0.114602
0.115307
0.115831
0.116173
0.116336
0.116322
0.116134
0.11578
0.115265
0.114598
0.11379
0.112854
0.111803
0.110655
0.10943
0.108149
0.106839
0.105527
0.104247
0.103035
0.101931
0.100977
0.100217
0.099687
0.0994359
0.0995158
0.0551345
0.0585315
0.061915
0.0652759
0.0686043
0.0718906
0.075125
0.0782977
0.0813992
0.0844201
0.0873511
0.0901831
0.0929073
0.0955151
0.0979984
0.100349
0.10256
0.104625
0.106536
0.108288
0.109875
0.111294
0.112539
0.113608
0.114498
0.115208
0.115737
0.116084
0.116253
0.116245
0.116065
0.115717
0.11521
0.11455
0.11375
0.112822
0.111779
0.110639
0.109421
0.108148
0.106844
0.105538
0.104264
0.103057
0.101957
0.101006
0.100247
0.0997178
0.0994666
0.0995454
0.0550569
0.0584483
0.0618264
0.0651818
0.0685051
0.0717864
0.075016
0.0781842
0.0812816
0.0842986
0.0872261
0.0900551
0.0927767
0.0953825
0.0978641
0.100214
0.102425
0.104489
0.106401
0.108154
0.109744
0.111165
0.112413
0.113486
0.114381
0.115095
0.115629
0.115983
0.116159
0.116158
0.115985
0.115646
0.115146
0.114496
0.113705
0.112785
0.111751
0.11062
0.10941
0.108145
0.106849
0.105551
0.104283
0.103081
0.101985
0.101037
0.10028
0.0997524
0.0995011
0.0995787
0.0549719
0.0583571
0.0617289
0.0650783
0.0683957
0.0716713
0.0748954
0.0780586
0.0811511
0.0841638
0.0870874
0.0899129
0.0926315
0.0952348
0.0977147
0.100063
0.102273
0.104338
0.10625
0.108005
0.109597
0.11102
0.112272
0.113349
0.114249
0.114969
0.115509
0.11587
0.116053
0.11606
0.115896
0.115565
0.115075
0.114434
0.113653
0.112743
0.111719
0.110597
0.109397
0.108141
0.106854
0.105564
0.104303
0.103107
0.102016
0.101072
0.100318
0.0997906
0.0995392
0.0996155
0.0548799
0.058258
0.0616229
0.0649654
0.0682762
0.0715454
0.0747635
0.0779208
0.081008
0.0840158
0.0869349
0.0897564
0.0924716
0.0950721
0.0975498
0.0998969
0.102106
0.104171
0.106084
0.10784
0.109434
0.11086
0.112116
0.113198
0.114102
0.114828
0.115375
0.115744
0.115934
0.11595
0.115795
0.115475
0.114995
0.114365
0.113594
0.112695
0.111682
0.110571
0.109382
0.108136
0.106858
0.105577
0.104324
0.103135
0.102049
0.101109
0.100358
0.0998324
0.099581
0.0996558
0.0547814
0.0581516
0.0615086
0.0648436
0.068147
0.0714091
0.0746203
0.0777712
0.0808524
0.0838545
0.0867686
0.0895856
0.092297
0.0948943
0.0973695
0.0997148
0.101923
0.103987
0.105901
0.107659
0.109255
0.110684
0.111944
0.11303
0.113941
0.114673
0.115228
0.115604
0.115803
0.115829
0.115684
0.115374
0.114906
0.114287
0.113528
0.112641
0.11164
0.110541
0.109364
0.108129
0.106862
0.10559
0.104346
0.103165
0.102085
0.10115