/*--------------------------------*- C++ -*----------------------------------*\
| =========                 |                                                 |
| \\      /  F ield         | OpenFOAM: The Open Source CFD Toolbox           |
|  \\    /   O peration     | Version:                                        |
|   \\  /    A nd           | Website:  www.openfoam.com                      |
|    \\/     M anipulation  |                                                 |
\*---------------------------------------------------------------------------*/
FoamFile
{
    version     2.0;
    format      ascii;
    class       volScalarField;
    location    "0.05";
    object      p;
}
// * * * * * * * * * * * * * * * * * * * * * * * * * * * * * * * * * * * * * //

dimensions      [0 2 -2 0 0 0 0];


internalField   nonuniform List<scalar> 
125000
(
0.00688151
0.00695615
0.00668568
0.00607365
0.00517691
0.00405374
0.00276344
0.00136145
-0.000103894
-0.00159037
-0.00306161
-0.00448637
-0.00583791
-0.00709347
-0.00823368
-0.0092422
-0.0101052
-0.0108112
-0.0113508
-0.0117163
-0.011902
-0.0119035
-0.0117178
-0.0113434
-0.0107798
-0.0100274
-0.00908789
-0.00796343
-0.0066571
-0.00517255
-0.00351405
-0.00168638
0.000305132
0.00245468
0.00475599
0.00720231
0.00978644
0.0125008
0.0153373
0.0182877
0.0213434
0.0244956
0.0277351
0.0310527
0.0344389
0.0378838
0.0413777
0.0449107
0.0484729
0.0520547
0.00686452
0.00693902
0.00666842
0.00605635
0.00515968
0.00403672
0.00274674
0.0013452
-0.000119599
-0.00160544
-0.00307599
-0.00450002
-0.00585082
-0.00710561
-0.00824506
-0.00925278
-0.010115
-0.0108202
-0.011359
-0.0117238
-0.0119088
-0.0119097
-0.0117235
-0.0113487
-0.0107846
-0.0100319
-0.00909207
-0.00796736
-0.00666083
-0.00517612
-0.00351749
-0.00168975
0.000301783
0.0024513
0.0047525
0.00719864
0.00978252
0.0124965
0.0153327
0.0182827
0.021338
0.0244897
0.0277287
0.0310457
0.0344313
0.0378756
0.0413689
0.0449013
0.0484629
0.052044
0.00683253
0.00690675
0.00663589
0.00602374
0.00512723
0.00400466
0.00271535
0.00131469
-0.000149033
-0.00163363
-0.0031028
-0.00452538
-0.00587468
-0.00712795
-0.00826582
-0.00927196
-0.0101326
-0.0108362
-0.0113735
-0.0117369
-0.0119206
-0.0119202
-0.011733
-0.0113571
-0.0107923
-0.0100389
-0.0090984
-0.00797319
-0.00666624
-0.00518121
-0.00352236
-0.0016945
0.000297033
0.00244643
0.00474739
0.00719316
0.00977654
0.0124899
0.0153254
0.0182746
0.021329
0.0244797
0.0277177
0.0310337
0.0344181
0.0378612
0.0413533
0.0448844
0.0484447
0.0520245
0.00678565
0.00685945
0.00658822
0.00597595
0.00507967
0.00395772
0.00266943
0.00127007
-0.000192034
-0.00167477
-0.00314191
-0.00456231
-0.00590934
-0.00716028
-0.00829579
-0.00929954
-0.0101578
-0.0108591
-0.0113941
-0.0117554
-0.0119371
-0.0119349
-0.011746
-0.0113687
-0.0108026
-0.010048
-0.00910664
-0.00798064
-0.00667308
-0.00518758
-0.00352843
-0.00170043
0.00029106
0.00244024
0.00474081
0.00718599
0.00976861
0.0124811
0.0153154
0.0182634
0.0213165
0.0244658
0.0277023
0.0310166
0.0343993
0.0378407
0.0413309
0.0448601
0.0484185
0.0519964
0.00672404
0.00679731
0.00652559
0.00591319
0.00501725
0.00389613
0.00260919
0.00121159
-0.000248348
-0.00172861
-0.00319301
-0.0046105
-0.0059545
-0.0072023
-0.00833464
-0.00933519
-0.0101903
-0.0108885
-0.0114205
-0.011779
-0.011958
-0.0119534
-0.0117623
-0.011383
-0.0108151
-0.0100591
-0.00911641
-0.00798937
-0.00668097
-0.00519488
-0.00353534
-0.00170721
0.000284195
0.00243305
0.00473304
0.00717743
0.00975901
0.0124702
0.0153031
0.0182495
0.0213008
0.0244482
0.0276826
0.0309947
0.0343751
0.0378141
0.0413019
0.0448286
0.0483845
0.0519598
0.00664798
0.00672058
0.00644826
0.00583571
0.0049402
0.00382017
0.00253493
0.00113957
-0.000317649
-0.00179479
-0.00325576
-0.00466958
-0.00600974
-0.0072536
-0.00838193
-0.00937848
-0.0102296
-0.0109239
-0.0114522
-0.0118071
-0.0119829
-0.0119752
-0.0117813
-0.0113996
-0.0108295
-0.0100715
-0.00912725
-0.0079989
-0.00668948
-0.00520264
-0.00354267
-0.0017144
0.000276852
0.00242525
0.0047245
0.00716784
0.00974811
0.0124577
0.0152888
0.0182332
0.0212822
0.0244271
0.0276589
0.0309683
0.0343458
0.0377818
0.0412665
0.0447901
0.0483427
0.0519149
0.00655776
0.00662955
0.00635654
0.00574384
0.00484891
0.00373018
0.00244702
0.00105438
-0.000399531
-0.00187289
-0.0033297
-0.00473908
-0.00607458
-0.00731366
-0.00843715
-0.00942885
-0.0102752
-0.0109648
-0.0114887
-0.0118393
-0.0120111
-0.0119998
-0.0118025
-0.0114178
-0.010845
-0.0100848
-0.00913859
-0.00800867
-0.00669803
-0.00521035
-0.00354989
-0.00172148
0.000269542
0.00241736
0.00471566
0.00715771
0.00973635
0.0124441
0.0152729
0.0182148
0.0212611
0.024403
0.0276316
0.0309377
0.0343117
0.037744
0.041225
0.0447447
0.0482935
0.0518617
0.00645374
0.00652459
0.00625079
0.00563794
0.00474372
0.00362658
0.0023459
0.000956503
-0.000493497
-0.00196238
-0.00341428
-0.0048184
-0.00614842
-0.00738187
-0.00849965
-0.00948565
-0.0103263
-0.0110106
-0.0115291
-0.0118748
-0.0120419
-0.0120263
-0.0118252
-0.0114369
-0.010861
-0.0100982
-0.00914974
-0.008018
-0.00670598
-0.00521733
-0.00355634
-0.00172783
0.000262871
0.00240994
0.00470709
0.00714758
0.00972428
0.0124297
0.0152559
0.0181948
0.0212378
0.0243762
0.0276011
0.0309032
0.034273
0.037701
0.0411776
0.0446928
0.048237
0.0518006
0.00633636
0.00640613
0.00613144
0.00551846
0.00462511
0.00350988
0.0022321
0.000846486
-0.000598957
-0.00206265
-0.00350884
-0.00490688
-0.00623055
-0.00745748
-0.00856868
-0.00954812
-0.0103824
-0.0110603
-0.0115729
-0.0119128
-0.0120746
-0.0120541
-0.0118484
-0.0114562
-0.0108768
-0.0101109
-0.0091599
-0.00802612
-0.00671254
-0.00522285
-0.00356131
-0.00173273
0.00025754
0.0024037
0.00469946
0.0071381
0.00971251
0.0124152
0.0152383
0.0181737
0.021213
0.0243473
0.0275678
0.0308653
0.0342303
0.0376533
0.0411247
0.0446347
0.0481736
0.0517318
0.00620611
0.00627466
0.00599901
0.00538594
0.00449364
0.00338064
0.00210622
0.000724972
-0.000715238
-0.00217298
-0.00361265
-0.00500375
-0.00632017
-0.00753969
-0.0086434
-0.00961539
-0.0104423
-0.0111132
-0.0116189
-0.0119524
-0.0121082
-0.0120821
-0.0118714
-0.0114746
-0.0108913
-0.010122
-0.00916818
-0.00803213
-0.00671686
-0.00522604
-0.00356394
-0.00173536
0.00025435
0.0023994
0.00469351
0.00712999
0.00970173
0.0124013
0.0152208
0.0181523
0.0211871
0.0243168
0.0275323
0.0308244
0.0341839
0.0376012
0.0410667
0.0445707
0.0481035
0.0516556
0.00606355
0.00613075
0.00585406
0.00524096
0.00434993
0.00323952
0.00196895
0.000592686
-0.000841576
-0.00229257
-0.00372487
-0.00510812
-0.00641638
-0.00762755
-0.00872286
-0.0096865
-0.0105052
-0.0111681
-0.0116663
-0.0119926
-0.0121417
-0.0121094
-0.0118931
-0.0114913
-0.0109036
-0.0101305
-0.00917358
-0.00803505
-0.00671796
-0.00522595
-0.0035633
-0.00173481
0.000254189
0.0023979
0.00469008
0.00712405
0.00969274
0.0123887
0.0152042
0.018131
0.021161
0.0242853
0.0274951
0.0307812
0.0341344
0.0375453
0.0410042
0.0445013
0.0480273
0.0515724
0.00590931
0.00597503
0.00569722
0.00508418
0.00419464
0.00308722
0.00182105
0.000450425
-0.000977129
-0.00242054
-0.00384457
-0.00521905
-0.0065182
-0.00772006
-0.00880601
-0.00976036
-0.01057
-0.0112241
-0.0117138
-0.0120322
-0.0121739
-0.0121348
-0.0119123
-0.011505
-0.0109125
-0.0101353
-0.00917499
-0.00803379
-0.00671475
-0.00522152
-0.00355835
-0.00173006
0.000258039
0.00240017
0.0046901
0.00712119
0.00968637
0.0123783
0.0151891
0.0181108
0.0211352
0.0242535
0.0274568
0.0307363
0.0340825
0.037486
0.0409374
0.044427
0.0479452
0.0514826
0.00574407
0.00580815
0.00552919
0.00491631
0.00402854
0.00292454
0.00166335
0.000299064
-0.00112098
-0.00255593
-0.00397076
-0.00533549
-0.00662452
-0.00781609
-0.0088917
-0.00983581
-0.0106354
-0.0112798
-0.0117603
-0.01207
-0.0122036
-0.012157
-0.0119278
-0.0115145
-0.0109168
-0.0101352
-0.00917119
-0.00802715
-0.00670607
-0.0052116
-0.00354798
-0.00172003
0.000266964
0.00240723
0.00469457
0.00712236
0.00968358
0.0123709
0.0151765
0.0180925
0.0211105
0.0242221
0.0274183
0.0306903
0.0340286
0.0374241
0.0408672
0.0443482
0.0478578
0.0513865
0.00556857
0.00563087
0.00535071
0.00473811
0.00385242
0.00275233
0.00149674
0.000139554
-0.00127213
-0.00269768
-0.00410232
-0.00545628
-0.00673418
-0.00791441
-0.00897867
-0.00991155
-0.0107002
-0.011334
-0.0118045
-0.0121047
-0.0122294
-0.0121747
-0.0119383
-0.0115185
-0.0109151
-0.0101287
-0.00916087
-0.00801384
-0.00669065
-0.00519494
-0.00353097
-0.00170352
0.000282118
0.00242021
0.00470458
0.00712863
0.00968537
0.0123675
0.0151673
0.0180769
0.021088
0.024192
0.0273803
0.0306439
0.0339736
0.0373601
0.0407939
0.0442656
0.0477657
0.0512848
0.00538358
0.00544396
0.00516259
0.00455043
0.00366717
0.00257151
0.00132221
-2.70694e-05
-0.00142947
-0.00284465
-0.00423806
-0.00558018
-0.00684586
-0.00801369
-0.00906555
-0.00998619
-0.0107629
-0.0113853
-0.0118447
-0.0121346
-0.0122498
-0.0121865
-0.0119421
-0.0115154
-0.010906
-0.0101146
-0.00914263
-0.00799248
-0.00666713
-0.00517023
-0.00350602
-0.00167927
0.000304743
0.00244032
0.0047213
0.00714112
0.00969285
0.0123692
0.0151626
0.018065
0.0210684
0.0241642
0.0273437
0.030598
0.0339181
0.0372947
0.0407184
0.0441797
0.0476693
0.0511778
0.00518998
0.00524829
0.00496569
0.00435417
0.00347374
0.00238309
0.00114081
-0.000199682
-0.00159184
-0.00299559
-0.00437667
-0.00570585
-0.00695818
-0.0081125
-0.00915086
-0.0100582
-0.010822
-0.0114319
-0.0118796
-0.0121584
-0.0122633
-0.0121907
-0.0119379
-0.0115038
-0.010888
-0.0100912
-0.00911496
-0.00796157
-0.00663405
-0.00513602
-0.00347173
-0.00164592
0.000336159
0.00246883
0.00474596
0.00716104
0.00970717
0.0123771
0.0151633
0.0180579
0.0210527
0.0241394
0.0273093
0.0305535
0.0338631
0.0372288
0.0406413
0.0440913
0.0475693
0.0510662
0.00498867
0.00504477
0.00476096
0.00415031
0.00327316
0.00218816
0.000953708
-0.00037707
-0.00175794
-0.00314916
-0.00451677
-0.00583182
-0.00706964
-0.00820928
-0.00923304
-0.010126
-0.0108759
-0.0114724
-0.0119074
-0.0121743
-0.0122683
-0.0121856
-0.0119239
-0.0114819
-0.0108593
-0.010057
-0.00907626
-0.00791957
-0.00658988
-0.00509083
-0.00342664
-0.00160203
0.000377769
0.00250711
0.00477991
0.00718968
0.00972958
0.0123924
0.0151707
0.0180566
0.0210421
0.0241187
0.027278
0.0305112
0.0338092
0.037163
0.0405634
0.0440009
0.0474663
0.0509505
0.00478063
0.00483438
0.0045494
0.00393989
0.00306651
0.00198786
0.000762116
-0.000557941
-0.00192642
-0.00330393
-0.00465685
-0.00595655
-0.00717863
-0.0083024
-0.00931039
-0.0101879
-0.0109227
-0.0115049
-0.0119263
-0.0121806
-0.0122628
-0.0121695
-0.0118983
-0.011448
-0.0108184
-0.0100102
-0.00902487
-0.00786481
-0.006533
-0.00503306
-0.00336919
-0.00154609
0.000431038
0.00255658
0.0048245
0.00722837
0.00976137
0.0124164
0.015186
0.0180624
0.0210376
0.0241033
0.027251
0.0304721
0.0337576
0.0370984
0.0404854
0.0439094
0.0473611
0.0508314
0.00456689
0.00461814
0.00433206
0.00372401
0.00285497
0.00178344
0.000567342
-0.000740913
-0.00209582
-0.00345838
-0.00479535
-0.0060784
-0.00728346
-0.00839013
-0.00938114
-0.010242
-0.0109608
-0.0115276
-0.0119345
-0.0121753
-0.0122451
-0.0121406
-0.0118594
-0.0114004
-0.0107634
-0.00994907
-0.00895903
-0.00779559
-0.00646173
-0.00496107
-0.00329777
-0.00147653
0.000497504
0.00261875
0.00488121
0.00727851
0.0098039
0.0124503
0.0152104
0.0180764
0.0210403
0.0240941
0.0272293
0.0304372
0.033709
0.0370357
0.0404083
0.0438176
0.0472544
0.0507097
0.00434852
0.00439714
0.00411005
0.00350384
0.00263976
0.0015762
0.000370767
-0.00092453
-0.00226462
-0.00361092
-0.00493058
-0.00619564
-0.00738236
-0.00847062
-0.00944343
-0.0102865
-0.0109882
-0.0115386
-0.0119301
-0.0121566
-0.0122133
-0.0120969
-0.0118052
-0.0113371
-0.0106924
-0.00987178
-0.00887693
-0.00771011
-0.00637432
-0.00487314
-0.00321072
-0.00139172
0.000578753
0.00269515
0.00495153
0.00734157
0.00985858
0.0124956
0.0152452
0.0180998
0.0210516
0.0240924
0.0272139
0.0304075
0.0336645
0.036976
0.0403329
0.0437263
0.0471469
0.0505859
0.00412666
0.00417251
0.00388455
0.00328059
0.00242211
0.0013675
0.000173839
-0.00110726
-0.0024312
-0.00375985
-0.00506079
-0.00630646
-0.00747346
-0.00854198
-0.00949531
-0.0103194
-0.0110028
-0.0115359
-0.0119111
-0.0121224
-0.0121653
-0.0120364
-0.0117338
-0.0112561
-0.0106034
-0.00977641
-0.00877669
-0.00760655
-0.00626896
-0.0047675
-0.0031063
-0.00128997
0.000676416
0.00278737
0.00503699
0.00741903
0.00992685
0.0125535
0.0152918
0.0181341
0.0210726
0.0240994
0.0272061
0.0303842
0.0336252
0.0369201
0.0402602
0.0436363
0.0470395
0.0504609
0.00390248
0.00394543
0.00365676
0.00305554
0.0022034
0.00115876
-2.19204e-05
-0.0012875
-0.00259387
-0.00390341
-0.00518415
-0.00640895
-0.0075548
-0.00860221
-0.00953475
-0.0103387
-0.0110026
-0.0115173
-0.0118753
-0.0120706
-0.012099
-0.0119571
-0.011643
-0.0111555
-0.0104946
-0.00966101
-0.00865638
-0.007483
-0.00614381
-0.00464236
-0.00298276
-0.00116957
0.000792171
0.00289703
0.00513919
0.00751242
0.0100102
0.0126256
0.0153515
0.0181804
0.0211047
0.0241162
0.0272069
0.0303684
0.033592
0.0368692
0.0401911
0.0435486
0.0469331
0.0503356
0.00367719
0.00371711
0.00342794
0.00283003
0.00198522
0.000951524
-0.000214919
-0.00146356
-0.00275086
-0.00403975
-0.00529874
-0.00650116
-0.00762437
-0.00864924
-0.00955966
-0.0103421
-0.0109855
-0.0114808
-0.0118206
-0.0119992
-0.0120124
-0.0118569
-0.0115308
-0.0110332
-0.0103638
-0.00952358
-0.00851407
-0.00733756
-0.005997
-0.0044959
-0.00283831
-0.00102879
0.00092771
0.00302579
0.0052597
0.0076233
0.0101101
0.0127133
0.0154258
0.0182402
0.021149
0.0241442
0.0272176
0.0303612
0.0335662
0.0368243
0.0401266
0.0434642
0.0468285
0.0502107
0.00345202
0.00348882
0.0031994
0.00260542
0.00176884
0.000747317
-0.000403502
-0.0016337
-0.00290035
-0.00416696
-0.00540259
-0.00658103
-0.00768007
-0.00868095
-0.00956787
-0.0103276
-0.0109493
-0.0114241
-0.0117448
-0.0119059
-0.0119032
-0.0117336
-0.0113952
-0.010887
-0.0102091
-0.00936212
-0.00834777
-0.00716832
-0.00582665
-0.00432627
-0.00267118
-0.000865883
0.00108471
0.00317529
0.00540014
0.0077532
0.0102281
0.012818
0.0155161
0.0183149
0.021207
0.0241845
0.0272395
0.0303637
0.0335488
0.0367864
0.0400677
0.043384
0.0467267
0.0500871
0.00322827
0.00326184
0.00297248
0.00238313
0.0015558
0.000547758
-0.000585955
-0.0017961
-0.00304043
-0.00428307
-0.00549365
-0.00664646
-0.00771975
-0.00869514
-0.00955718
-0.0102929
-0.0108918
-0.0113451
-0.0116458
-0.0117886
-0.0117693
-0.0115851
-0.0112339
-0.010715
-0.0100283
-0.00917463
-0.00815556
-0.00697336
-0.00563091
-0.00413167
-0.0024796
-0.000679145
0.00126485
0.00334712
0.00556205
0.00790364
0.0103656
0.0129412
0.0156236
0.0184057
0.0212798
0.0242384
0.0272736
0.0303772
0.033541
0.0367566
0.0400155
0.043309
0.0466287
0.0499658
0.00300723
0.00303749
0.00274856
0.00216463
0.00134769
0.000354519
-0.000760506
-0.00194891
-0.00316915
-0.00438605
-0.00556983
-0.00669532
-0.00774124
-0.00868962
-0.00952535
-0.0102358
-0.0108107
-0.0112414
-0.0115213
-0.011645
-0.0116086
-0.0114092
-0.011045
-0.0105151
-0.00981955
-0.00895916
-0.0079355
-0.00675081
-0.00540795
-0.00391032
-0.00226184
-0.000466886
0.00146975
0.00354289
0.00574698
0.00807612
0.0105241
0.0130843
0.0157499
0.0185139
0.0213689
0.0243073
0.0273212
0.0304028
0.0335438
0.036736
0.039971
0.0432403
0.0465353
0.0498476
0.00279023
0.00281712
0.00252904
0.00195141
0.0011461
0.000169312
-0.000925338
-0.00209019
-0.00328451
-0.00447381
-0.00562898
-0.00672541
-0.00774231
-0.00866213
-0.00947014
-0.010154
-0.0107037
-0.0111109
-0.0113691
-0.011473
-0.0114189
-0.0112039
-0.0108263
-0.0102853
-0.00958082
-0.00871379
-0.00768574
-0.00649888
-0.00515601
-0.00366051
-0.00201623
-0.000227489
0.001701
0.00376413
0.00595643
0.00827209
0.010705
0.0132486
0.0158962
0.0186409
0.0214754
0.0243922
0.0273835
0.0304416
0.0335584
0.0367258
0.0399353
0.0431788
0.0464476
0.0497336
0.0025786
0.00260208
0.00231535
0.00174502
0.000952664
-6.12575e-06
-0.00107861
-0.00221803
-0.00338449
-0.00454429
-0.00566899
-0.00673457
-0.00772077
-0.00861048
-0.00938934
-0.0100454
-0.0105688
-0.0109515
-0.011187
-0.0112705
-0.0111981
-0.0109672
-0.0105759
-0.0100236
-0.00931027
-0.00843673
-0.00740453
-0.00621584
-0.00487345
-0.00338064
-0.00174123
4.0553e-05
0.00196006
0.00401226
0.00619178
0.00849289
0.0109095
0.0134354
0.0160638
0.0187879
0.0216005
0.0244943
0.0274616
0.0304948
0.0335859
0.0367269
0.0399095
0.0431255
0.0463666
0.0496247
0.00237365
0.00239371
0.00210892
0.00154696
0.000769032
-0.000170027
-0.00121844
-0.00233045
-0.00346705
-0.00459538
-0.0056877
-0.00672064
-0.00767444
-0.00853248
-0.00928078
-0.00990772
-0.0104037
-0.0107609
-0.0109732
-0.0110356
-0.0109444
-0.0106971
-0.010292
-0.00972835
-0.00900617
-0.00812629
-0.00709023
-0.00590013
-0.00455871
-0.00306922
-0.00143538
0.000338631
0.00224826
0.00428858
0.00645429
0.00873976
0.011139
0.0136459
0.0162538
0.018956
0.0217454
0.0246148
0.0275567
0.0305634
0.0336273
0.0367403
0.0398944
0.0430815
0.0462933
0.0495218
0.0021767
0.00219338
0.00191118
0.00135879
0.000596876
-0.000320611
-0.00134296
-0.00242549
-0.00353017
-0.004625
-0.00568301
-0.00668147
-0.00760119
-0.00842601
-0.00914237
-0.00973897
-0.0102065
-0.0105374
-0.0107255
-0.0107662
-0.0106559
-0.010392
-0.00997288
-0.00939785
-0.00866695
-0.00778097
-0.0067414
-0.00555034
-0.00421046
-0.00272493
-0.00109743
0.000667987
0.00256683
0.00459427
0.00674511
0.00901382
0.0113945
0.0138812
0.0164673
0.0191462
0.021911
0.0247546
0.0276695
0.0306484
0.0336836
0.0367671
0.0398911
0.0430476
0.0462286
0.0494259
0.00198903
0.00200239
0.00172355
0.00118205
0.00043784
-0.000456123
-0.00145032
-0.00250122
-0.00357186
-0.00463114
-0.00565289
-0.00661504
-0.00749901
-0.0082891
-0.00897216
-0.00953724
-0.0099753
-0.010279
-0.0104424
-0.0104609
-0.010331
-0.0100503
-0.00961707
-0.00903073
-0.00829128
-0.00739949
-0.00635682
-0.00516532
-0.00382758
-0.00234672
-0.000726325
0.00102962
0.00291674
0.00493028
0.00706517
0.00931596
0.0116769
0.0141421
0.0167051
0.0193594
0.0220982
0.0249146
0.0278012
0.0307507
0.0337556
0.0368082
0.0399006
0.043025
0.0461734
0.0493381
0.00181187
0.00182204
0.00154741
0.00101823
0.00029355
-0.000574832
-0.0015387
-0.00255577
-0.0035902
-0.00461186
-0.00559539
-0.00651945
-0.00736601
-0.0081199
-0.00876839
-0.00930084
-0.00970849
-0.0099842
-0.0101222
-0.0101181
-0.0099684
-0.00967067
-0.0092234
-0.00862586
-0.00787809
-0.00698086
-0.00593555
-0.00474416
-0.00340922
-0.00193378
-0.00032132
0.00142426
0.00329868
0.0052973
0.00741514
0.00964688
0.0119869
0.0144293
0.0169679
0.0195963
0.0223078
0.0250955
0.0279524
0.0308711
0.0338442
0.0368643
0.0399236
0.0430143
0.0461287
0.0492591
0.0016464
0.00165356
0.0013841
0.000868814
0.000165594
-0.000675057
-0.00160635
-0.00258735
-0.00358338
-0.00456535
-0.00550874
-0.00639294
-0.00720052
-0.00791682
-0.00852951
-0.0090283
-0.00940471
-0.00965178
-0.00976395
-0.00973682
-0.00956707
-0.00925231
-0.00879101
-0.00818246
-0.00742669
-0.00652441
-0.00547698
-0.00428631
-0.00295488
-0.00148563
0.000118042
0.00185234
0.00371308
0.00569573
0.00779543
0.010007
0.0123249
0.0147433
0.0172563
0.0198574
0.0225402
0.0252979
0.0281236
0.0310101
0.0339501
0.0369362
0.0399608
0.0430164
0.0460953
0.0491899
0.00149372
0.00149812
0.00123493
0.000735201
5.54853e-05
-0.0007552
-0.00165162
-0.00259428
-0.00354974
-0.00448997
-0.00539136
-0.006234
-0.00700111
-0.00767851
-0.0082543
-0.00871852
-0.00906294
-0.00928081
-0.0093667
-0.00931633
-0.00912643
-0.00879465
-0.00831948
-0.0077002
-0.00693679
-0.00602995
-0.00498096
-0.00379167
-0.00246447
-0.00100221
0.000591802
0.00231388
0.00415995
0.0061256
0.00820607
0.0103963
0.0126909
0.0150841
0.0175702
0.0201429
0.0227957
0.0255221
0.0283153
0.0311681
0.0340736
0.0370243
0.040013
0.043032
0.046074
0.0491313
0.0013548
0.00135679
0.00110106
0.000618673
-3.53701e-05
-0.00081379
-0.00167301
-0.00257507
-0.00348783
-0.00438436
-0.00524195
-0.00604145
-0.0067667
-0.00740403
-0.00794194
-0.0083708
-0.00868262
-0.00887085
-0.00893018
-0.00885644
-0.00864639
-0.00829772
-0.00780892
-0.00717925
-0.00640867
-0.0054978
-0.00444787
-0.00326065
-0.00193844
-0.000483998
0.00109948
0.00280842
0.00463885
0.00658648
0.00864667
0.0108145
0.0130846
0.0154516
0.0179096
0.0204525
0.0230742
0.0257681
0.0285274
0.0313454
0.0342151
0.0371292
0.0400805
0.0430616
0.0460653
0.049084
0.00123053
0.00123053
0.000983574
0.000520325
-0.00010572
-0.000849533
-0.00166924
-0.00252849
-0.00339649
-0.00424745
-0.00505958
-0.0058145
-0.00649666
-0.0070929
-0.00759212
-0.007985
-0.00826378
-0.00842208
-0.00845471
-0.00835758
-0.0081275
-0.00776217
-0.00726008
-0.00662046
-0.00584322
-0.00492893
-0.00387872
-0.0026943
-0.00137787
6.79316e-05
0.00164001
0.00333489
0.00514874
0.00707737
0.00911628
0.0112606
0.0135053
0.0158449
0.0182737
0.0207859
0.0233753
0.0260354
0.0287599
0.0315419
0.0343745
0.0372508
0.0401636
0.0431056
0.0460698
0.0490487
0.0011216
0.00112014
0.000883443
0.00044152
-0.000154455
-0.000861366
-0.00163931
-0.00245363
-0.00327495
-0.00407861
-0.00484381
-0.0055529
-0.00619094
-0.00674528
-0.00720519
-0.00756164
-0.00780711
-0.00793536
-0.00794132
-0.00782095
-0.00757109
-0.00718946
-0.00667453
-0.00602547
-0.00524217
-0.00432509
-0.00327532
-0.00209445
-0.000784578
0.000651753
0.00221157
0.00389153
0.00568789
0.00759662
0.00961331
0.0117333
0.0139515
0.0162628
0.0186615
0.0211419
0.023698
0.0263235
0.029012
0.0317569
0.0345515
0.037389
0.0402622
0.0431642
0.0460878
0.0490258
0.00102853
0.00102627
0.000801393
0.000382867
-0.000180782
-0.000848533
-0.00158257
-0.00235001
-0.0031229
-0.00387779
-0.00459479
-0.00525704
-0.00585018
-0.00636204
-0.00678225
-0.00710208
-0.00731418
-0.00741247
-0.00739196
-0.00724866
-0.00697943
-0.00658199
-0.00605475
-0.00539688
-0.00460816
-0.00368901
-0.0026404
-0.00146384
-0.000161314
0.00126475
0.00281151
0.00447571
0.00625378
0.00814177
0.0101354
0.0122302
0.0144212
0.0167033
0.019071
0.0215189
0.0240408
0.0266308
0.0292826
0.0319897
0.0347455
0.0375433
0.0403761
0.0432372
0.0461194
0.0490158
0.000951633
0.000949353
0.000737934
0.000344858
-0.000184238
-0.000810699
-0.00149887
-0.00221771
-0.00294071
-0.00364562
-0.00431348
-0.00492817
-0.00547593
-0.00594503
-0.00632545
-0.00660871
-0.00678764
-0.00685628
-0.00680972
-0.00664398
-0.00635596
-0.00594331
-0.00540445
-0.00473846
-0.00394505
-0.00302456
-0.00197787
-0.000806366
0.00048807
0.00190313
0.00343608
0.00508381
0.00684286
0.00870942
0.0106794
0.0127482
0.0149113
0.0171636
0.0194998
0.0219144
0.0244017
0.0269556
0.0295701
0.0322388
0.0349552
0.0377127
0.0405047
0.0433243
0.0461646
0.0490187
0.000890928
0.000889525
0.000693272
0.000327666
-0.000164822
-0.000748091
-0.00138875
-0.00205757
-0.00272958
-0.00338368
-0.00400182
-0.00456863
-0.0050709
-0.00549731
-0.00583817
-0.00608523
-0.00623148
-0.00627104
-0.00619907
-0.0060116
-0.00570552
-0.00527845
-0.00472874
-0.00405541
-0.0032581
-0.00233703
-0.001293
-0.000127286
0.00115836
0.00256174
0.00408025
0.00571091
0.00745037
0.00929496
0.0112407
0.0132832
0.015418
0.0176401
0.0199443
0.0223254
0.0247776
0.0272951
0.029872
0.032502
0.0351788
0.0378959
0.0406468
0.0434246
0.0462228
0.0490345
0.00084613
0.000846624
0.000667216
0.000330948
-0.000123142
-0.000661667
-0.00125354
-0.0018714
-0.00249178
-0.0030947
-0.00366304
-0.00418209
-0.00463919
-0.00502342
-0.00532536
-0.00553695
-0.00565132
-0.00566269
-0.00556621
-0.00535794
-0.00503472
-0.00459414
-0.00403449
-0.00335469
-0.00255429
-0.00163344
-0.0005928
0.000566456
0.00184269
0.00323383
0.00473741
0.00635055
0.00807005
0.00989236
0.0118136
0.0138296
0.0159359
0.0181276
0.0203999
0.0227474
0.0251646
0.0276458
0.0301852
0.0327767
0.035414
0.0380908
0.0408007
0.0435371
0.0462933
0.0490628
0.000816589
0.000820072
0.000659067
0.000353711
-6.06097e-05
-0.000553336
-0.00109571
-0.00166225
-0.00223094
-0.00278292
-0.00330194
-0.00377393
-0.00418673
-0.00452975
-0.00479386
-0.00497114
-0.00505484
-0.0050392
-0.00491942
-0.00469151
-0.00435229
-0.00389928
-0.00333069
-0.00264536
-0.00184274
-0.000922871
0.000113694
0.0012659
0.00253222
0.00391073
0.00539905
0.00699446
0.00869387
0.0104939
0.0123907
0.0143802
0.0164582
0.0186199
0.0208605
0.0231748
0.0255575
0.0280029
0.0305054
0.0330589
0.0356573
0.0382945
0.0409641
0.0436597
0.0463747
0.0491027
0.000801223
0.000808778
0.000667458
0.000394137
2.0305e-05
-0.000426256
-0.000919161
-0.00143474
-0.00195244
-0.00245445
-0.00292533
-0.00335164
-0.00372162
-0.00402503
-0.00425293
-0.00439755
-0.00445219
-0.00441114
-0.00426957
-0.00402348
-0.0036696
-0.0032054
-0.00262899
-0.00193912
-0.00113515
-0.000217
0.000814888
0.00195957
0.00321566
0.00458133
0.00605434
0.00763208
0.00931159
0.0110896
0.0129623
0.014926
0.0169763
0.0191087
0.0213185
0.0236005
0.0259496
0.0283603
0.0308269
0.0333437
0.0359045
0.0385033
0.041134
0.04379
0.0464652
0.0491529
0.000798438
0.000810997
0.000690117
0.00044915
0.000115719
-0.000285233
-0.00072962
-0.00119556
-0.00166388
-0.00211778
-0.00254257
-0.00292536
-0.00325479
-0.00352086
-0.0037148
-0.00382895
-0.00385667
-0.00379222
-0.00363075
-0.00336821
-0.00300126
-0.00252727
-0.00194427
-0.00125091
-0.000446441
0.000469329
0.00149607
0.00263295
0.00387871
0.00523162
0.00668957
0.00825008
0.00991028
0.011667
0.0135167
0.0154555
0.0174793
0.0195837
0.0217641
0.0240154
0.0263326
0.0287102
0.0311428
0.0336246
0.0361498
0.0387123
0.041306
0.0439247
0.046562
0.0492117
0.000806074
0.00082414
0.000723591
0.00051424
0.000219938
-0.000137146
-0.000535152
-0.00095394
-0.00137562
-0.00178436
-0.00216614
-0.00250856
-0.00280057
-0.0030324
-0.00319539
-0.00328195
-0.00328542
-0.00320008
-0.00302101
-0.00274408
-0.00236587
-0.00188368
-0.00129541
-0.000599623
0.000204541
0.00111738
0.00213869
0.00326773
0.00450336
0.00584396
0.00728754
0.00883171
0.0104737
0.0122105
0.0140386
0.0159542
0.0179534
0.0200319
0.0221849
0.0244079
0.0266956
0.0290428
0.031444
0.0338937
0.036386
0.038915
0.0414747
0.044059
0.0466617
0.0492763
0.000821329
0.000844514
0.000762898
0.000582965
0.000325027
8.56068e-06
-0.000346692
-0.000722253
-0.00110145
-0.00146931
-0.00181243
-0.0021188
-0.00237763
-0.0025793
-0.00271522
-0.00277782
-0.00276044
-0.00265727
-0.00246334
-0.00217444
-0.00178707
-0.0012984
-0.000706252
-9.08119e-06
0.000794079
0.00170364
0.00271947
0.00384097
0.00506708
0.0063963
0.0078267
0.00935602
0.0109816
0.0127004
0.0145091
0.0164041
0.0183814
0.0204368
0.0225657
0.0247635
0.0270251
0.0293454
0.031719
0.0341404
0.0366038
0.0391034
0.0416332
0.0441872
0.0467593
0.0493432
0.0008407
0.000867096
0.000801191
0.000646654
0.000420484
0.000139617
-0.000178291
-0.000516305
-0.000858855
-0.00119174
-0.00150206
-0.0017781
-0.00200926
-0.00218599
-0.00229974
-0.00234291
-0.00230877
-0.00219146
-0.00198591
-0.00168784
-0.00129362
-0.000800341
-0.000205731
0.000491861
0.00129349
0.00219967
0.00321036
0.00432505
0.00554277
0.00686209
0.00828119
0.00979787
0.0114095
0.0131133
0.0149058
0.0167836
0.0187426
0.0207789
0.0228878
0.0250648
0.027305
0.0296031
0.031954
0.0343521
0.0367918
0.0392672
0.0417725
0.0443018
0.0468488
0.0494074
0.000860007
0.000885343
0.000829807
0.000694595
0.000493551
0.000241162
-4.68837e-05
-0.000355125
-0.00066888
-0.000974604
-0.00125976
-0.00151279
-0.00172321
-0.00188151
-0.00197908
-0.00200825
-0.00196223
-0.00183507
-0.00162162
-0.00131747
-0.000918919
-0.000422964
0.000172754
0.00086997
0.00166982
0.00257289
0.00357923
0.00468839
0.00589946
0.00721109
0.00862153
0.0101286
0.0117298
0.0134223
0.0152028
0.0170678
0.0190135
0.0210356
0.02313
0.0252919
0.0275164
0.0297985
0.0321328
0.0345141
0.0369366
0.0393945
0.0418821
0.0443935
0.0469225
0.0494628
0.000874421
0.000891662
0.000839137
0.000714969
0.000529651
0.000295416
2.62426e-05
-0.000263496
-0.000559827
-0.000849546
-0.00112039
-0.00136048
-0.00155963
-0.00170819
-0.00179749
-0.00181975
-0.0017681
-0.00163648
-0.00141966
-0.00111314
-0.00071317
-0.000216662
0.000378808
0.00107503
0.00187319
0.00277394
0.00377736
0.00488307
0.00609017
0.00739737
0.00880293
0.0103047
0.0119003
0.0135868
0.015361
0.0172194
0.0191581
0.0211732
0.0232601
0.0254144
0.0276311
0.0299051
0.0322313
0.0346042
0.0370182
0.0394676
0.0419464
0.044449
0.0469691
0.0495005
0.000879783
0.000882808
0.000826389
0.000704012
0.000522261
0.000291796
2.58202e-05
-0.000261627
-0.000556643
-0.00084592
-0.00111696
-0.00135809
-0.0015587
-0.00170906
-0.0018004
-0.00182486
-0.00177546
-0.0016461
-0.00143145
-0.00112699
-0.000728999
-0.000234327
0.000359488
0.00105425
0.00185112
0.00275081
0.00375343
0.00485857
0.00606536
0.00737248
0.00877822
0.0102804
0.0118766
0.0135639
0.0153392
0.0171988
0.019139
0.0211556
0.0232444
0.0254005
0.0276193
0.0298956
0.0322241
0.0345993
0.0370157
0.0394676
0.0419491
0.0444543
0.0469772
0.0495113
0.00679671
0.00685506
0.0065897
0.00605037
0.00528518
0.00433325
0.0032371
0.00204186
0.000786335
-0.000493094
-0.00176418
-0.00299856
-0.0041715
-0.00526156
-0.00625029
-0.00712188
-0.00786284
-0.00846175
-0.00890911
-0.00919722
-0.00932003
-0.00927293
-0.00905266
-0.00865721
-0.00808567
-0.00733818
-0.00641581
-0.00532041
-0.00405453
-0.00262135
-0.00102464
0.000731304
0.00264166
0.00470112
0.00690389
0.00924371
0.0117139
0.0143072
0.0170163
0.0198332
0.0227499
0.025758
0.0288489
0.0320138
0.0352436
0.0385291
0.0418609
0.0452294
0.0486252
0.0520396
0.00677991
0.00683819
0.0065728
0.00603351
0.00526844
0.00431676
0.00322095
0.00202614
0.00077114
-0.000507685
-0.00177811
-0.00301182
-0.00418406
-0.00527342
-0.00626144
-0.00713229
-0.00787249
-0.00847064
-0.00891727
-0.00920471
-0.00932689
-0.00927923
-0.00905847
-0.00866258
-0.00809066
-0.00734287
-0.00642023
-0.00532458
-0.0040585
-0.00262516
-0.00102831
0.000727725
0.00263812
0.00469756
0.00690025
0.00923992
0.0117099
0.0143029
0.0170116
0.0198282
0.0227445
0.0257522
0.0288426
0.032007
0.0352362
0.0385212
0.0418524
0.0452204
0.0486157
0.0520294
0.00674828
0.00680642
0.00654097
0.00600176
0.00523696
0.00428573
0.00319065
0.00199669
0.000742722
-0.000534918
-0.00180406
-0.00303641
-0.00420726
-0.00529519
-0.00628175
-0.00715112
-0.00788981
-0.00848648
-0.00893169
-0.00921779
-0.00933874
-0.00928994
-0.00906816
-0.00867136
-0.00809867
-0.0073502
-0.00642698
-0.00533084
-0.00406435
-0.00263068
-0.00103359
0.000722583
0.00263301
0.00469237
0.00689487