/*--------------------------------*- C++ -*----------------------------------*\
| =========                 |                                                 |
| \\      /  F ield         | OpenFOAM: The Open Source CFD Toolbox           |
|  \\    /   O peration     | Version:                                        |
|   \\  /    A nd           | Website:  www.openfoam.com                      |
|    \\/     M anipulation  |                                                 |
\*---------------------------------------------------------------------------*/
FoamFile
{
    version     2.0;
    format      ascii;
    class       volScalarField;
    location    "0.05";
    object      p;
}
// * * * * * * * * * * * * * * * * * * * * * * * * * * * * * * * * * * * * * //

dimensions      [0 2 -2 0 0 0 0];


internalField   nonuniform List<scalar> 
125000
(
-0.0344171
-0.0448571
-0.0526622
-0.0596003
-0.0661288
-0.0721025
-0.0775165
-0.0823868
-0.0867218
-0.0905313
-0.0938275
-0.0966246
-0.098937
-0.10078
-0.102169
-0.103121
-0.10365
-0.103774
-0.103507
-0.102865
-0.101865
-0.100523
-0.0988527
-0.0968709
-0.0945918
-0.0920291
-0.0891959
-0.0861053
-0.0827695
-0.0792005
-0.0754094
-0.0714067
-0.0672019
-0.0628047
-0.0582243
-0.0534698
-0.0485494
-0.0434719
-0.038245
-0.0328762
-0.0273732
-0.0217428
-0.0159928
-0.0101297
-0.00416063
0.0019071
0.00806689
0.0143096
0.0206301
0.027027
-0.0344924
-0.0449304
-0.052734
-0.0596706
-0.0661973
-0.0721691
-0.0775811
-0.0824494
-0.0867824
-0.09059
-0.0938845
-0.0966798
-0.0989903
-0.100831
-0.102219
-0.103168
-0.103696
-0.103817
-0.103548
-0.102905
-0.101903
-0.100559
-0.0988871
-0.0969037
-0.0946229
-0.0920586
-0.089224
-0.0861316
-0.0827942
-0.0792237
-0.0754311
-0.0714267
-0.0672204
-0.0628218
-0.0582401
-0.0534842
-0.0485627
-0.0434839
-0.0382558
-0.032886
-0.0273819
-0.0217508
-0.0159996
-0.0101356
-0.00416556
0.00190322
0.00806355
0.0143073
0.0206285
0.0270259
-0.0346415
-0.0450757
-0.052876
-0.0598094
-0.0663327
-0.0723008
-0.0777088
-0.0825731
-0.086902
-0.0907058
-0.0939967
-0.0967884
-0.0990952
-0.100933
-0.102316
-0.103262
-0.103785
-0.103902
-0.103629
-0.102982
-0.101977
-0.100629
-0.0989547
-0.096968
-0.0946838
-0.092116
-0.089278
-0.0861826
-0.0828421
-0.0792684
-0.0754726
-0.0714651
-0.0672559
-0.0628545
-0.0582701
-0.0535117
-0.0485878
-0.0435066
-0.0382762
-0.0329041
-0.0273978
-0.0217646
-0.0160115
-0.0101455
-0.0041737
0.00189694
0.00805884
0.0143043
0.020627
0.0270259
-0.034865
-0.0452932
-0.0530885
-0.0600168
-0.0665348
-0.0724972
-0.0778994
-0.0827578
-0.0870809
-0.090879
-0.0941643
-0.0969503
-0.0992516
-0.101083
-0.102461
-0.1034
-0.103918
-0.104029
-0.103751
-0.103098
-0.102088
-0.100735
-0.0990551
-0.0970633
-0.094774
-0.0922012
-0.0893582
-0.0862579
-0.0829128
-0.0793345
-0.0755341
-0.071522
-0.0673083
-0.0629027
-0.0583143
-0.0535521
-0.0486244
-0.0435396
-0.0383057
-0.0329302
-0.0274207
-0.0217843
-0.0160282
-0.0101594
-0.00418478
0.00188846
0.00805297
0.0143007
0.0206258
0.0270268
-0.0351634
-0.0455833
-0.0533716
-0.060293
-0.0668037
-0.0727586
-0.0781531
-0.0830036
-0.0873189
-0.0911093
-0.094387
-0.0971655
-0.0994591
-0.101283
-0.102653
-0.103585
-0.104095
-0.104198
-0.103912
-0.103252
-0.102235
-0.100875
-0.099188
-0.0971893
-0.0948933
-0.0923137
-0.0894642
-0.0863575
-0.0830061
-0.0794216
-0.0756151
-0.071597
-0.0673776
-0.0629664
-0.0583726
-0.0536051
-0.0486724
-0.0435828
-0.0383442
-0.0329642
-0.0274504
-0.0218099
-0.0160498
-0.0101771
-0.00419888
0.00187783
0.00804568
0.0142966
0.0206249
0.0270287
-0.035537
-0.0459464
-0.0537258
-0.0606383
-0.0671397
-0.0730851
-0.0784698
-0.0833106
-0.0876161
-0.0913967
-0.0946648
-0.0974336
-0.0997176
-0.101532
-0.102892
-0.103814
-0.104314
-0.104409
-0.104113
-0.103444
-0.102417
-0.101049
-0.0993531
-0.0973459
-0.0950413
-0.0924535
-0.0895957
-0.0864811
-0.0831218
-0.0795295
-0.0757154
-0.07169
-0.0674634
-0.0630452
-0.0584447
-0.0536707
-0.0487317
-0.0436361
-0.0383917
-0.0330061
-0.0274869
-0.0218412
-0.0160761
-0.0101987
-0.00421594
0.00186514
0.00803701
0.014292
0.020624
0.0270312
-0.0359866
-0.046383
-0.0541514
-0.0610531
-0.0675431
-0.0734769
-0.0788498
-0.0836787
-0.0879724
-0.0917412
-0.0949975
-0.0977546
-0.100027
-0.101829
-0.103178
-0.104089
-0.104577
-0.10466
-0.104353
-0.103673
-0.102635
-0.101256
-0.0995501
-0.0975325
-0.0952178
-0.0926199
-0.0897524
-0.0866281
-0.0832594
-0.0796579
-0.0758348
-0.0718006
-0.0675654
-0.0631389
-0.0585303
-0.0537486
-0.0488022
-0.0436993
-0.038448
-0.0330557
-0.0275301
-0.0218782
-0.0161072
-0.0102241
-0.00423601
0.00185026
0.00802702
0.0142867
0.0206231
0.0270345
-0.036513
-0.0468936
-0.054649
-0.0615376
-0.0680141
-0.0739341
-0.0792931
-0.084108
-0.0883877
-0.0921426
-0.0953849
-0.0981282
-0.100387
-0.102175
-0.10351
-0.104407
-0.104882
-0.104952
-0.104632
-0.103939
-0.102888
-0.101497
-0.0997784
-0.0977488
-0.0954222
-0.0928127
-0.0899338
-0.0867983
-0.0834187
-0.0798065
-0.0759729
-0.0719284
-0.0676833
-0.0632472
-0.0586293
-0.0538386
-0.0488835
-0.0437723
-0.0385129
-0.0331129
-0.0275798
-0.0219208
-0.016143
-0.0102533
-0.00425899
0.00183318
0.00801568
0.0142807
0.0206222
0.0270387
-0.0371169
-0.0474791
-0.0552191
-0.0620924
-0.0685532
-0.0744571
-0.0797999
-0.0845986
-0.088862
-0.0926006
-0.0958268
-0.098554
-0.100797
-0.10257
-0.103889
-0.10477
-0.105229
-0.105283
-0.104948
-0.104241
-0.103176
-0.10177
-0.100038
-0.0979942
-0.095654
-0.0930313
-0.0901393
-0.0869912
-0.083599
-0.0799747
-0.0761291
-0.0720731
-0.0678167
-0.0633697
-0.0587413
-0.0539404
-0.0489754
-0.0438547
-0.0385862
-0.0331775
-0.0276359
-0.0219688
-0.0161833
-0.0102863
-0.00428485
0.00181397
0.00800291
0.014274
0.0206212
0.0270431
-0.0377994
-0.0481402
-0.0558623
-0.062718
-0.0691605
-0.075046
-0.0803702
-0.0851502
-0.0893951
-0.0931152
-0.096323
-0.0990319
-0.101256
-0.103011
-0.104312
-0.105176
-0.105618
-0.105655
-0.105303
-0.104578
-0.103497
-0.102075
-0.100327
-0.098268
-0.0959127
-0.093275
-0.0903685
-0.0872061
-0.0838
-0.080162
-0.0763032
-0.0722342
-0.0679653
-0.0635061
-0.0588659
-0.0540536
-0.0490777
-0.0439464
-0.0386678
-0.0332493
-0.0276984
-0.0220223
-0.0162281
-0.0103229
-0.00431363
0.00179262
0.00798865
0.0142665
0.0206202
0.027048
-0.0385616
-0.0488778
-0.0565794
-0.0634149
-0.0698366
-0.075701
-0.0810041
-0.085763
-0.0899868
-0.093686
-0.096873
-0.0995612
-0.101765
-0.1035
-0.104781
-0.105625
-0.106047
-0.106065
-0.105694
-0.104951
-0.103851
-0.102411
-0.100646
-0.0985696
-0.0961974
-0.0935433
-0.0906206
-0.0874424
-0.0840209
-0.0803679
-0.0764944
-0.0724113
-0.0681285
-0.0636559
-0.0590027
-0.0541779
-0.04919
-0.0440471
-0.0387572
-0.0333281
-0.0277668
-0.0220809
-0.0162773
-0.0103632
-0.0043453
0.0017691
0.00797282
0.014258
0.0206188
0.027053
-0.0394047
-0.0496927
-0.057371
-0.0641835
-0.0705816
-0.0764223
-0.0817017
-0.0864368
-0.0906369
-0.0943126
-0.0974764
-0.100142
-0.102323
-0.104035
-0.105294
-0.106116
-0.106516
-0.106512
-0.106121
-0.105357
-0.104237
-0.102778
-0.100993
-0.0988981
-0.0965075
-0.0938352
-0.0908949
-0.0876994
-0.0842611
-0.0805917
-0.0767022
-0.0726036
-0.0683058
-0.0638186
-0.0591513
-0.0543129
-0.0493118
-0.0441564
-0.0388544
-0.0334135
-0.0278412
-0.0221446
-0.0163308
-0.0104069
-0.00437985
0.00174338
0.00795545
0.0142486
0.0206168
0.027058
-0.0403298
-0.0505859
-0.0582378
-0.0650245
-0.0713961
-0.0772101
-0.0824628
-0.0871714
-0.0913451
-0.0949947
-0.0981326
-0.100772
-0.102928
-0.104615
-0.10585
-0.106647
-0.107024
-0.106997
-0.106582
-0.105796
-0.104655
-0.103174
-0.101368
-0.0992526
-0.0968418
-0.09415
-0.0911904
-0.0879763
-0.0845198
-0.0808326
-0.0769259
-0.0728105
-0.0684965
-0.0639936
-0.0593112
-0.0544581
-0.0494429
-0.0442739
-0.0389589
-0.0335055
-0.0279212
-0.0222132
-0.0163885
-0.0104541
-0.0044172
0.00171543
0.00793643
0.0142381
0.0206144
0.027063
-0.0413384
-0.0515585
-0.0591806
-0.0659383
-0.0722801
-0.0780644
-0.0832875
-0.0879665
-0.092111
-0.0957317
-0.098841
-0.101453
-0.103581
-0.105241
-0.106448
-0.107219
-0.10757
-0.107518
-0.107078
-0.106268
-0.105102
-0.103598
-0.10177
-0.099632
-0.0971996
-0.0944865
-0.0915064
-0.0882721
-0.084796
-0.0810898
-0.0771647
-0.0730314
-0.0687
-0.0641803
-0.0594816
-0.054613
-0.0495827
-0.0443992
-0.0390703
-0.0336037
-0.0280066
-0.0222864
-0.0164501
-0.0105048
-0.00445733
0.00168527
0.00791569
0.0142264
0.0206111
0.0270676
-0.0424318
-0.0526113
-0.0602001
-0.0669253
-0.0732341
-0.0789853
-0.0841754
-0.0888219
-0.0929341
-0.096523
-0.0996009
-0.102181
-0.104279
-0.105909
-0.107088
-0.10783
-0.108153
-0.108073
-0.107606
-0.10677
-0.105579
-0.104049
-0.102197
-0.100035
-0.0975795
-0.0948438
-0.0918416
-0.0885858
-0.0850889
-0.0813625
-0.0774177
-0.0732653
-0.0689155
-0.064378
-0.0596622
-0.0547769
-0.0497307
-0.0445319
-0.0391884
-0.0337077
-0.0280972
-0.0223642
-0.0165156
-0.0105587
-0.0045002
0.00165285
0.00789319
0.0142133
0.0206069
0.0270716
-0.0436114
-0.0537455
-0.0612971
-0.0679861
-0.0742581
-0.0799727
-0.0851265
-0.089737
-0.0938137
-0.0973676
-0.100411
-0.102958
-0.105023
-0.106621
-0.107767
-0.108479
-0.108771
-0.108661
-0.108166
-0.107301
-0.106082
-0.104526
-0.102647
-0.100461
-0.0979803
-0.0952205
-0.0921949
-0.0889164
-0.0853974
-0.0816495
-0.0776839
-0.0735115
-0.0691422
-0.064586
-0.059852
-0.0549493
-0.0498864
-0.0446716
-0.0393126
-0.0338172
-0.0281926
-0.0224462
-0.0165849
-0.0106158
-0.00454577
0.00161815
0.00786886
0.0141987
0.0206016
0.0270748
-0.0448787
-0.0549619
-0.0624721
-0.069121
-0.0753523
-0.0810264
-0.0861401
-0.0907111
-0.094749
-0.0982647
-0.101271
-0.103781
-0.10581
-0.107373
-0.108485
-0.109163
-0.109423
-0.109281
-0.108755
-0.10786
-0.106612
-0.105027
-0.103121
-0.100907
-0.0984005
-0.0956154
-0.092565
-0.0892625
-0.0857202
-0.0819498
-0.0779624
-0.0737688
-0.0693792
-0.0648033
-0.0600504
-0.0551296
-0.0500492
-0.0448175
-0.0394425
-0.0339317
-0.0282925
-0.0225321
-0.0166576
-0.010676
-0.004594
0.00158118
0.00784259
0.0141825
0.0205948
0.0270768
-0.046235
-0.0562617
-0.0637258
-0.0703302
-0.0765165
-0.0821461
-0.0872159
-0.0917436
-0.095739
-0.0992132
-0.102179
-0.104649
-0.106639
-0.108164
-0.109239
-0.109882
-0.110107
-0.109931
-0.109372
-0.108444
-0.107166
-0.105551
-0.103615
-0.101373
-0.0988388
-0.0960268
-0.0929505
-0.0896229
-0.0860562
-0.0822622
-0.078252
-0.0740364
-0.0696256
-0.0650292
-0.0602566
-0.0553169
-0.0502183
-0.0449693
-0.0395777
-0.034051
-0.0283967
-0.0226219
-0.0167337
-0.0107391
-0.00464486
0.00154192
0.00781427
0.0141645
0.0205865
0.0270775
-0.0476818
-0.0576455
-0.0650586
-0.0716139
-0.0777507
-0.0833313
-0.088353
-0.0928334
-0.0967825
-0.100211
-0.103133
-0.10556
-0.107509
-0.108993
-0.110029
-0.110633
-0.11082
-0.110609
-0.110014
-0.109053
-0.107742
-0.106095
-0.104128
-0.101856
-0.0992932
-0.0964533
-0.0933499
-0.0899959
-0.0864039
-0.0825853
-0.0785515
-0.0743131
-0.0698802
-0.0652627
-0.0604698
-0.0555104
-0.0503932
-0.0451262
-0.0397175
-0.0341745
-0.0285047
-0.0227151
-0.0168129
-0.010805
-0.00469829
0.00150035
0.00778382
0.0141445
0.0205763
0.0270764
-0.0492204
-0.0591143
-0.0664709
-0.0729721
-0.0790544
-0.0845813
-0.0895503
-0.0939793
-0.0978781
-0.101258
-0.104132
-0.106513
-0.108416
-0.109857
-0.110851
-0.111414
-0.111562
-0.111312
-0.110681
-0.109684
-0.108338
-0.106658
-0.104659
-0.102355
-0.099762
-0.0968929
-0.0937613
-0.0903801
-0.0867618
-0.0829178
-0.0788595
-0.0745975
-0.070142
-0.0655026
-0.0606888
-0.0557094
-0.050573
-0.0452877
-0.0398614
-0.0343018
-0.028616
-0.0228114
-0.016895
-0.0108736
-0.00475419
0.00145646
0.00775117
0.0141224
0.0205642
0.0270735
-0.0508521
-0.0606686
-0.0679628
-0.0744044
-0.0804269
-0.0858951
-0.0908067
-0.0951796
-0.0990239
-0.102351
-0.105173
-0.107505
-0.10936
-0.110754
-0.111703
-0.112222
-0.112329
-0.112038
-0.111368
-0.110334
-0.108951
-0.107236
-0.105204
-0.102868
-0.100243
-0.0973438
-0.094183
-0.0907737
-0.0871282
-0.0832581
-0.0791746
-0.0748884
-0.0704096
-0.065748
-0.0609128
-0.0559129
-0.0507569
-0.0454529
-0.0400088
-0.0344323
-0.0287304
-0.0229106
-0.0169797
-0.0109447
-0.00481248
0.00141022
0.00771622
0.0140981
0.0205498
0.027068
-0.0525779
-0.0623088
-0.0695344
-0.0759105
-0.0818675
-0.0872715
-0.0921206
-0.0964327
-0.100218
-0.103488
-0.106255
-0.108533
-0.110337
-0.111681
-0.112582
-0.113056
-0.113118
-0.112785
-0.112074
-0.111
-0.10958
-0.107829
-0.105761
-0.103391
-0.100734
-0.0978038
-0.0946129
-0.0911747
-0.0875014
-0.0836045
-0.0794953
-0.0751844
-0.0706819
-0.0659975
-0.0611406
-0.0561199
-0.050944
-0.0456211
-0.0401591
-0.0345654
-0.0288473
-0.0230122
-0.0170668
-0.0110182
-0.00487308
0.00136163
0.00767889
0.0140714
0.0205329
0.0270599
-0.0543988
-0.0640353
-0.0711851
-0.0774894
-0.0833747
-0.0887088
-0.09349
-0.0977361
-0.101458
-0.104666
-0.107374
-0.109595
-0.111343
-0.112635
-0.113486
-0.113911
-0.113927
-0.113549
-0.112795
-0.111681
-0.110221
-0.108432
-0.106328
-0.103924
-0.101233
-0.0982706
-0.0950489
-0.0915811
-0.0878794
-0.0839552
-0.0798198
-0.0754838
-0.0709573
-0.0662499
-0.061371
-0.0563293
-0.0511335
-0.0457915
-0.0403114
-0.0347005
-0.0289663
-0.0231158
-0.0171559
-0.0110937
-0.00493589
0.00131072
0.00763912
0.014042
0.0205132
0.027049
-0.0563155
-0.0658477
-0.0729145
-0.07914
-0.0849471
-0.0902051
-0.0949125
-0.0990874
-0.10274
-0.105882
-0.108527
-0.110687
-0.112377
-0.113613
-0.11441
-0.114784
-0.114751
-0.114327
-0.113529
-0.112372
-0.110871
-0.109043
-0.106902
-0.104462
-0.101737
-0.0987417
-0.0954886
-0.0919907
-0.0882601
-0.0843084
-0.0801465
-0.0757851
-0.0712344
-0.0665039
-0.0616028
-0.0565401
-0.0513242
-0.0459633
-0.040465
-0.0348371
-0.0290867
-0.023221
-0.0172468
-0.0111712
-0.0050008
0.00125753
0.00759685
0.0140099
0.0204905
0.0270348
-0.0583285
-0.0677459
-0.0747214
-0.0808609
-0.0865826
-0.0917579
-0.0963854
-0.100483
-0.104062
-0.107133
-0.10971
-0.111805
-0.113434
-0.114611
-0.115352
-0.115672
-0.115588
-0.115116
-0.114271
-0.11307
-0.111527
-0.109659
-0.107479
-0.105003
-0.102243
-0.0992145
-0.0959296
-0.0924012
-0.0886414
-0.0846618
-0.0804734
-0.0760866
-0.0715116
-0.0667579
-0.0618348
-0.0567511
-0.0515153
-0.0461354
-0.0406193
-0.0349744
-0.0292081
-0.0233273
-0.0173391
-0.0112503
-0.00506767
0.00120209
0.00755201
0.0139749
0.0204645
0.027017
-0.0604377
-0.0697289
-0.0766044
-0.0826498
-0.0882787
-0.0933641
-0.0979053
-0.10192
-0.10542
-0.108415
-0.110919
-0.112946
-0.114509
-0.115624
-0.116305
-0.11657
-0.116433
-0.11591
-0.115018
-0.113771
-0.112186
-0.110276
-0.108057
-0.105544
-0.102749
-0.0996862
-0.0963691
-0.09281
-0.089021
-0.0850135
-0.0807984
-0.0763863
-0.0717871
-0.0670104
-0.0620655
-0.056961
-0.0517055
-0.046307
-0.0407732
-0.0351117
-0.0293298
-0.0234344
-0.0174325
-0.0113309
-0.00513634
0.00114444
0.00750456
0.0139369
0.0204352
0.0269952
-0.0626429
-0.0717954
-0.0785614
-0.0845043
-0.0900321
-0.0950202
-0.0994681
-0.103394
-0.106808
-0.109723
-0.11215
-0.114103
-0.115598
-0.116647
-0.117267
-0.117473
-0.117281
-0.116707
-0.115765
-0.114471
-0.112842
-0.110891
-0.108632
-0.106081
-0.10325
-0.100154
-0.0968044
-0.0932146
-0.0893964
-0.0853611
-0.0811196
-0.0766823
-0.0720592
-0.0672599
-0.0622934
-0.0571685
-0.0518937
-0.0464769
-0.040926
-0.0352483
-0.0294512
-0.0235416
-0.0175265
-0.0114126
-0.00520662
0.00108468
0.0074545
0.0138957
0.0204021
0.0269693
-0.064943
-0.0739434
-0.0805897
-0.0864209
-0.091839
-0.0967219
-0.101069
-0.104899
-0.108223
-0.111051
-0.113397
-0.115273
-0.116695
-0.117676
-0.118232
-0.118377
-0.118128
-0.1175
-0.116507
-0.115167
-0.113492
-0.111498
-0.1092
-0.106611
-0.103744
-0.100614
-0.0972323
-0.0936121
-0.0897649
-0.0857021
-0.0814346
-0.0769726
-0.072326
-0.0675045
-0.062517
-0.0573723
-0.0520786
-0.0466442
-0.0410766
-0.0353834
-0.0295717
-0.0236485
-0.0176207
-0.0114951
-0.0052783
0.00102292
0.00740184
0.0138514
0.0203652
0.026939
-0.0673367
-0.0761703
-0.082686
-0.0883957
-0.0936949
-0.0984641
-0.102703
-0.106431
-0.109657
-0.112394
-0.114653
-0.116449
-0.117794
-0.118704
-0.119193
-0.119276
-0.118968
-0.118285
-0.117241
-0.115852
-0.114132
-0.112095
-0.109757
-0.10713
-0.104227
-0.101063
-0.0976498
-0.0939994
-0.0901238
-0.0860341
-0.081741
-0.0772549
-0.0725856
-0.0677425
-0.0627346
-0.0575707
-0.052259
-0.0468076
-0.0412241
-0.035516
-0.0296904
-0.0237543
-0.0177146
-0.011578
-0.00535113
0.000959321
0.00734663
0.0138037
0.0203244
0.0269041
-0.0698216
-0.0784726
-0.0848458
-0.0904236
-0.0955941
-0.100241
-0.104364
-0.107982
-0.111105
-0.113744
-0.115913
-0.117623
-0.118889
-0.119725
-0.120144
-0.120163
-0.119795
-0.119056
-0.117959
-0.116521
-0.114756
-0.112677
-0.110298
-0.107633
-0.104695
-0.101498
-0.0980534
-0.0943736
-0.0904702
-0.0863542
-0.0820365
-0.077527
-0.0728357
-0.0679719
-0.0629446
-0.0577624
-0.0524335
-0.046966
-0.0413674
-0.0356453
-0.0298067
-0.0238585
-0.0178077
-0.0116609
-0.0054248
0.000894072
0.00728895
0.0137529
0.0202796
0.0268644
-0.0723945
-0.0808459
-0.087064
-0.0924986
-0.0975302
-0.102045
-0.106044
-0.109545
-0.112558
-0.115095
-0.117168
-0.118789
-0.119972
-0.120731
-0.12108
-0.121032
-0.120603
-0.119807
-0.118658
-0.11717
-0.115359
-0.113237
-0.110819
-0.108117
-0.105145
-0.101915
-0.0984396
-0.0947312
-0.0908009
-0.0866598
-0.0823183
-0.0777866
-0.0730744
-0.0681909
-0.0631451
-0.0579456
-0.0526006
-0.0471179
-0.0415054
-0.0357702
-0.0299196
-0.0239604
-0.0178994
-0.0117434
-0.00549895
0.000827423
0.00722897
0.0136988
0.0202306
0.0268197
-0.0750512
-0.0832845
-0.0893339
-0.0946136
-0.0994953
-0.103869
-0.107735
-0.111111
-0.114009
-0.116438
-0.11841
-0.119939
-0.121036
-0.121716
-0.121991
-0.121876
-0.121385
-0.120531
-0.119329
-0.117793
-0.115936
-0.113772
-0.111315
-0.108576
-0.10557
-0.102309
-0.0988047
-0.0950688
-0.0911129
-0.0869478
-0.0825838
-0.0780311
-0.0732991
-0.0683972
-0.0633342
-0.0581187
-0.0527587
-0.0472622
-0.0416368
-0.0358898
-0.0300282
-0.0240591
-0.0179891
-0.0118249
-0.00557316
0.000759677
0.00716689
0.0136416
0.0201776
0.0267699
-0.0777862
-0.0857816
-0.0916477
-0.0967601
-0.10148
-0.105702
-0.109427
-0.112672
-0.115446
-0.117762
-0.11963
-0.121062
-0.122071
-0.122669
-0.12287
-0.122687
-0.122133
-0.121222
-0.119967
-0.118382
-0.116481
-0.114276
-0.11178
-0.109007
-0.105968
-0.102677
-0.0991447
-0.0953829
-0.0914028
-0.0872152
-0.0828302
-0.0782579
-0.0735078
-0.0685889
-0.0635101
-0.0582799
-0.0529064
-0.0473974
-0.0417604
-0.0360028
-0.0301317
-0.0241538
-0.018076
-0.0119049
-0.00564697
0.000691199
0.00710299
0.0135816
0.0201207
0.0267151
-0.0805924
-0.0883285
-0.0939961
-0.0989279
-0.103475
-0.107535
-0.111109
-0.114214
-0.116861
-0.119058
-0.120817
-0.12215
-0.123068
-0.123583
-0.123709
-0.123457
-0.12284
-0.121871
-0.120565
-0.118932
-0.116987
-0.114742
-0.11221
-0.109403
-0.106334
-0.103014
-0.0994557
-0.0956697
-0.0916672
-0.0874587
-0.0830545
-0.0784644
-0.0736977
-0.0687636
-0.0636707
-0.0584274
-0.0530419
-0.0475219
-0.0418749
-0.0361083
-0.0302289
-0.0242437
-0.0181594
-0.0119826
-0.00571984
0.000622433
0.0070376
0.0135189
0.02006
0.0266556
-0.0834611
-0.0909151
-0.0963677
-0.101105
-0.105467
-0.109354
-0.112769
-0.115728
-0.118239
-0.120313
-0.12196
-0.123191
-0.124016
-0.124448
-0.124497
-0.124176
-0.123497
-0.122473
-0.121115
-0.119436
-0.117449
-0.115166
-0.112599
-0.109761
-0.106663
-0.103316
-0.0997335
-0.0959253
-0.0919024
-0.0876752
-0.0832538
-0.0786478
-0.0738665
-0.068919
-0.0638138
-0.0585593
-0.0531636
-0.0476343
-0.041979
-0.0362048
-0.0303188
-0.0243278
-0.0182385
-0.0120574
-0.00579114
0.000553916
0.00697117
0.0134539
0.0199958
0.0265915
-0.0863815
-0.0935289
-0.0987492
-0.103278
-0.107442
-0.111146
-0.114393
-0.117197
-0.119568
-0.121515
-0.123047
-0.124173
-0.124905
-0.125252
-0.125225
-0.124836
-0.124096
-0.123017
-0.121609
-0.119886
-0.11786
-0.115541
-0.112941
-0.110074
-0.106949
-0.103579
-0.0999739
-0.0961458
-0.0921049
-0.0878612
-0.0834248
-0.0788052
-0.0740115
-0.0690527
-0.0639373
-0.0586736
-0.0532695
-0.0477329
-0.042071
-0.0362911
-0.0304002
-0.024405
-0.0183122
-0.0121284
-0.00586012
0.000486292
0.00690427
0.0133871
0.0199286
0.0265231
-0.0893403
-0.0961549
-0.101125
-0.10543
-0.109383
-0.112894
-0.115964
-0.118608
-0.120833
-0.122649
-0.124063
-0.125084
-0.125721
-0.125984
-0.125883
-0.125427
-0.124627
-0.123495
-0.122041
-0.120276
-0.118212
-0.11586
-0.113231
-0.110336
-0.107188
-0.103796
-0.100173
-0.0963273
-0.0922709
-0.0880134
-0.0835645
-0.0789337
-0.07413
-0.0691622
-0.0640388
-0.0587681
-0.0533579
-0.0478159
-0.0421495
-0.0363657
-0.0304717
-0.0244741
-0.0183796
-0.0121947
-0.00592596
0.000420309
0.00683756
0.0133191
0.0198587
0.0264508
-0.0923212
-0.0987754
-0.103476
-0.107543
-0.111272
-0.114579
-0.117464
-0.119942
-0.122018
-0.1237
-0.124995
-0.12591
-0.126453
-0.126633
-0.126458
-0.125938
-0.125081
-0.123899
-0.122401
-0.120597
-0.118499
-0.116117
-0.113461
-0.110544
-0.107374
-0.103965
-0.100325
-0.0964656
-0.0923967
-0.0881282
-0.0836697
-0.0790304
-0.0742193
-0.0692451
-0.0641162
-0.0588408
-0.0534268
-0.0478816
-0.0422127
-0.0364273
-0.0305321
-0.024534
-0.0184395
-0.0122553
-0.00598771
0.000356817
0.00677182
0.0132507
0.019787
0.0263752
-0.0953046
-0.101369
-0.105781
-0.109595
-0.113088
-0.116181
-0.118875
-0.12118
-0.123104
-0.12465
-0.125825
-0.126635
-0.127086
-0.127185
-0.12694
-0.126358
-0.125448
-0.124219
-0.122681
-0.120842
-0.118713
-0.116305
-0.113627
-0.110689
-0.107503
-0.104079
-0.100427
-0.0965567
-0.0924786
-0.0882023
-0.0837371
-0.0790923
-0.0742766
-0.0692988
-0.0641671
-0.0588896
-0.0534741
-0.0479282
-0.0422592
-0.0364741
-0.0305799
-0.0245832
-0.0184908
-0.012309
-0.00604435
0.000296779
0.00670794
0.0131825
0.0197142
0.0262973
-0.0982669
-0.103911
-0.108015
-0.11156
-0.114805
-0.117676
-0.120172
-0.122303
-0.124071
-0.125482
-0.126539
-0.127245
-0.127607
-0.127628
-0.127316
-0.126677
-0.125718
-0.124447
-0.122872
-0.121003
-0.118848
-0.116418
-0.113721
-0.110769
-0.10757
-0.104135
-0.100474
-0.0965965
-0.0925127
-0.088232
-0.0837636
-0.0791164
-0.0742993
-0.0693208
-0.0641891
-0.0589123
-0.053498
-0.0479538
-0.042287
-0.0365046
-0.0306135
-0.0246205
-0.018532
-0.0123546
-0.00609472
0.000241289
0.00664698
0.0131158
0.0196414
0.0262178
-0.101179
-0.106373
-0.110149
-0.113411
-0.116397
-0.119039
-0.121332
-0.123285
-0.124899
-0.126176
-0.127116
-0.127723
-0.127999
-0.127948
-0.127574
-0.126883
-0.12588
-0.124572
-0.122967
-0.121072
-0.118897
-0.116449
-0.113739
-0.110775
-0.107568
-0.104127
-0.100461
-0.0965809
-0.0924953
-0.088214
-0.0837458
-0.0790997
-0.0742845
-0.0693084
-0.0641798
-0.0589065
-0.0534962
-0.0479564
-0.0422944
-0.0365171
-0.0306315
-0.0246442
-0.0185618
-0.0123908
-0.00613752
0.000191579
0.0065901
0.0130515
0.0195695
0.0261379
-0.104007
-0.108718
-0.112147
-0.115114
-0.117833
-0.120239
-0.122328
-0.124103
-0.125565
-0.12671
-0.12754
-0.128052
-0.128249
-0.128131
-0.127702
-0.126965
-0.125924
-0.124586
-0.122956
-0.121042
-0.118851
-0.116392
-0.113674
-0.110704
-0.107494
-0.104051
-0.100385
-0.0965059
-0.0924228
-0.0881447
-0.0836806
-0.0790393
-0.0742294
-0.0692591
-0.0641367
-0.05887
-0.0534667
-0.0479341
-0.0422795
-0.0365099
-0.0306321
-0.0246529
-0.0185787
-0.012416
-0.00617135
0.000149008
0.00653863
0.012991
0.0194998
0.0260588
-0.10671
-0.110906
-0.113971
-0.116632
-0.119077
-0.121245
-0.123129
-0.12473
-0.126044
-0.127064
-0.127789
-0.128215
-0.12834
-0.128163
-0.127686
-0.126911
-0.12584
-0.124479
-0.122831
-0.120905
-0.118705
-0.116241
-0.11352
-0.110551
-0.107342
-0.103902
-0.100241
-0.0963679
-0.0922915
-0.0880209
-0.0835649
-0.0789322
-0.0741313
-0.0691704
-0.0640575
-0.0588006
-0.0534072
-0.0478847
-0.0422403
-0.036481
-0.0306135
-0.0246447
-0.018581
-0.0124288
-0.00619471
0.000115058
0.00649404
0.0129358
0.0194338
0.025982
-0.109237
-0.11289
-0.115577
-0.117923
-0.12009
-0.122021
-0.123705
-0.125138
-0.126311
-0.127215
-0.127845
-0.128193
-0.128256
-0.128031
-0.127516
-0.126712
-0.125619
-0.124243
-0.122586
-0.120654
-0.118453
-0.11599
-0.113272
-0.110309
-0.107107
-0.103677
-0.100026
-0.0961631
-0.0920981
-0.0878394
-0.0833958
-0.0787757
-0.0739876
-0.0690397
-0.0639399
-0.0586961
-0.0533158
-0.0478064
-0.042175
-0.0364286
-0.0305741
-0.024618
-0.018567
-0.0124276
-0.00620597
9.13149e-05
0.00645792
0.0128873
0.0193731
0.025909
-0.111529
-0.114616
-0.116912
-0.118941
-0.120831
-0.12253
-0.124021
-0.125295
-0.126339
-0.12714
-0.127687
-0.127971
-0.127984
-0.127721
-0.127179
-0.126356
-0.125252
-0.12387
-0.122211
-0.120282
-0.118087
-0.115633
-0.112926
-0.109975
-0.106787
-0.103371
-0.0997349
-0.0958883
-0.0918395
-0.0875974
-0.0831704
-0.0785671
-0.0737958
-0.0688647
-0.0637815
-0.0585542
-0.0531903
-0.047697
-0.0420816
-0.0363509
-0.0305119
-0.0245711
-0.0185351
-0.0124105
-0.00620345
7.9466e-05
0.00643193
0.0128474
0.0193195
0.0258416
-0.113515
-0.116018
-0.117919
-0.119632
-0.121251
-0.122728
-0.124039
-0.12517
-0.1261
-0.126813
-0.127293
-0.127528
-0.127505
-0.127219
-0.126662
-0.125832
-0.124728
-0.12335
-0.121701
-0.119783
-0.117603
-0.115165
-0.112476
-0.109543
-0.106375
-0.10298
-0.0993649
-0.0955395
-0.0915121
-0.0872914
-0.0828857
-0.0783035
-0.0735531
-0.0686426
-0.0635798
-0.0583726
-0.0530283
-0.0475543
-0.0419579
-0.0362458
-0.0304249
-0.0245019
-0.0184833
-0.0123756
-0.00618527
8.13856e-05
0.00641792
0.0128179
0.0192747
0.0257818
-0.115113
-0.117029
-0.118537
-0.119941
-0.121303
-0.122574
-0.123725
-0.124732
-0.12557
-0.126215
-0.126648
-0.12685
-0.12681
-0.126515
-0.125958
-0.125135
-0.124043
-0.122681
-0.12105
-0.119154
-0.116996
-0.114582
-0.111919
-0.109012
-0.105871
-0.102502
-0.0989137
-0.0951151
-0.0911142
-0.0869196
-0.0825398
-0.0779832
-0.0732579
-0.0683719
-0.0633333
-0.0581496
-0.0528284
-0.0473769
-0.0418024
-0.0361117
-0.0303116
-0.0244089
-0.01841
-0.0123215
-0.00614976
9.8773e-05
0.00641769
0.0128005
0.0192406
0.0257315
-0.116241
-0.117592
-0.118724
-0.119838
-0.120965
-0.122055
-0.123073
-0.123983
-0.124754
-0.125355
-0.125762
-0.125954
-0.125913
-0.125626
-0.125085
-0.124281
-0.123213
-0.121877
-0.120275
-0.118409
-0.116282
-0.1139
-0.111269
-0.108395
-0.105286
-0.101949
-0.0983925
-0.0946252
-0.0906553
-0.0864912
-0.0821412
-0.0776138
-0.072917
-0.068059
-0.0630476
-0.0578904
-0.052595
-0.0471686
-0.0416184
-0.0359514
-0.0301742
-0.0242937
-0.0183164
-0.0122487
-0.00609717
0.000131844
0.00643188
0.0127964
0.0192189
0.0256926
-0.116754
-0.11756
-0.11832
-0.119158
-0.120075
-0.121018
-0.121937
-0.122787
-0.123525
-0.124115
-0.124527
-0.124734
-0.124718
-0.124462
-0.123955
-0.12319
-0.122161
-0.120867
-0.119307
-0.117484
-0.1154
-0.113061
-0.110472
-0.107639
-0.104571
-0.101275
-0.0977581
-0.0940296
-0.0900975
-0.0859704
-0.0816566
-0.0771644
-0.0725019
-0.0676772
-0.0626981
-0.0575723
-0.0523074
-0.0469105
-0.0413888
-0.0357494
-0.0299989
-0.0241441
-0.0181916
-0.0121478
-0.0060193
0.00018755
0.00646626
0.0128103
0.019213
0.0256677
-0.116489
-0.116658
-0.116953
-0.117476
-0.11819
-0.119018
-0.119884
-0.120723
-0.12148
-0.122109
-0.122571
-0.122839
-0.122888
-0.1227
-0.122264
-0.12157
-0.120612
-0.119388
-0.117897
-0.116142
-0.114125
-0.111851
-0.109325
-0.106555
-0.103547
-0.10031
-0.0968507
-0.0931781
-0.0893005
-0.0852262
-0.0809637
-0.0765213
-0.0719071
-0.0671292
-0.0621955
-0.0571136
-0.051891
-0.046535
-0.0410528
-0.0354514
-0.0297375
-0.0239179
-0.0179992
-0.0119879
-0.00589045
0.0002866
0.00653677
0.0128535
0.0192302
0.0256599
-0.0415387
-0.0523184
-0.0603684
-0.0675146
-0.0742294
-0.0803628
-0.0859099
-0.0908876
-0.0953047
-0.0991722
-0.102503
-0.105313
-0.107616
-0.10943
-0.110772
-0.111658
-0.112106
-0.112132
-0.111755
-0.110991
-0.109857
-0.108369
-0.106546
-0.104402
-0.101954
-0.0992151
-0.0962003
-0.0929228
-0.0893956
-0.0856313
-0.0816413
-0.0774365
-0.0730271
-0.0684229
-0.0636333
-0.0586675
-0.0535341
-0.0482417
-0.042798
-0.0372107
-0.0314873
-0.0256348
-0.0196602
-0.0135705
-0.00737236
-0.00107276
0.00532127
0.011802
0.0183633
0.0250036
-0.0416147
-0.0523927
-0.0604411
-0.0675858
-0.0742989
-0.0804304
-0.0859754
-0.090951
-0.0953662
-0.0992317
-0.102561
-0.105369
-0.10767
-0.109483
-0.110822
-0.111706
-0.112152
-0.112176
-0.111797
-0.111031
-0.109895
-0.108406
-0.106581
-0.104435
-0.101985
-0.0992447
-0.0962284
-0.0929492
-0.0894204
-0.0856544
-0.0816629
-0.0774565
-0.0730455
-0.0684398
-0.0636488
-0.0586816
-0.053547
-0.0482533
-0.0428084
-0.0372199
-0.0314955
-0.025642
-0.0196664
-0.0135756
-0.00737656
-0.00107592
0.00531889
0.0118004
0.0183627
0.0250036
-0.0417654
-0.0525396
-0.0605848
-0.0677263
-0.074436
-0.0805638
-0.0861049
-0.0910766
-0.0954878
-0.0993495
-0.102675
-0.105479
-0.107777
-0.109585
-0.110921
-0.111801
-0.112243
-0.112263
-0.11188
-0.11111
-0.10997
-0.108478
-0.106649
-0.1045
-0.102047
-0.0993028
-0.0962829
-0.0930005
-0.0894685
-0.0856993
-0.0817044
-0.0774948
-0.0730807
-0.0684721
-0.0636784
-0.0587085
-0.0535714
-0.0482752
-0.0428279
-0.0372371
-0.0315103
-0.0256546
-0.0196769
-0.0135841
-0.0073831
-0.00108064
0.00531594
0.0117991
0.0183629
0.0250055
-0.0419913
-0.0527596
-0.0607999
-0.0679364
-0.0746409
-0.0807631
-0.0862985
-0.0912642
-0.0956696
-0.0995256
-0.102846
-0.105644
-0.107936
-0.109739
-0.111068
-0.111943
-0.112378
-0.112393
-0.112004
-0.111228
-0.110083
-0.108585
-0.106751
-0.104597
-0.102138
-0.099389
-0.096364
-0.0930765
-0.0895396
-0.0857656
-0.081766
-0.0775516
-0.073133
-0.0685199
-0.063722
-0.0587481
-0.053607
-0.048307
-0.042856
-0.0372617
-0.0315315
-0.0256724
-0.0196916
-0.0135958
-0.00739189
-0.00108671
0.00531255
0.0117983
0.0183645
0.0250092
-0.0422929
-0.0530531
-0.0610866
-0.0682163
-0.0749135
-0.0810283
-0.086556
-0.091514
-0.0959116
-0.0997599
-0.103072
-0.105863
-0.108147
-0.109942
-0.111264
-0.11213
-0.112558
-0.112565
-0.112168
-0.111385
-0.110232
-0.108727
-0.106886
-0.104725
-0.102259
-0.099503
-0.0964711
-0.093177
-0.0896336
-0.0858531
-0.0818471
-0.0776265
-0.0732019
-0.068583
-0.0637794
-0.0588001
-0.0536537
-0.0483486
-0.0428927
-0.0372937
-0.0315589
-0.0256955
-0.0197105
-0.0136107
-0.00740292
-0.00109408
0.00530867
0.0117978
0.0183673
0.0250149
-0.0426705
-0.0534205
-0.0614452
-0.0685662
-0.0752542
-0.0813596
-0.0868776
-0.0918259
-0.0962137
-0.100052
-0.103355
-0.106136
-0.10841
-0.110195
-0.111508
-0.112364
-0.112782
-0.112779
-0.112373
-0.11158
-0.110418
-0.108904
-0.107054
-0.104884
-0.102409