/*--------------------------------*- C++ -*----------------------------------*\
| =========                 |                                                 |
| \\      /  F ield         | OpenFOAM: The Open Source CFD Toolbox           |
|  \\    /   O peration     | Version:                                        |
|   \\  /    A nd           | Website:  www.openfoam.com                      |
|    \\/     M anipulation  |                                                 |
\*---------------------------------------------------------------------------*/
FoamFile
{
    version     2.0;
    format      ascii;
    class       volScalarField;
    location    "0.05";
    object      p;
}
// * * * * * * * * * * * * * * * * * * * * * * * * * * * * * * * * * * * * * //

dimensions      [0 2 -2 0 0 0 0];


internalField   nonuniform List<scalar> 
125000
(
-0.116365
-0.116534
-0.116829
-0.117351
-0.118066
-0.118893
-0.11976
-0.120599
-0.121356
-0.121984
-0.122447
-0.122714
-0.122763
-0.122576
-0.122139
-0.121445
-0.120487
-0.119263
-0.117773
-0.116017
-0.114
-0.111726
-0.1092
-0.10643
-0.103422
-0.100185
-0.0967255
-0.0930529
-0.0891752
-0.0851009
-0.0808384
-0.0763959
-0.0717818
-0.0670038
-0.0620701
-0.0569881
-0.0517655
-0.0464095
-0.0409272
-0.0353257
-0.0296118
-0.0237922
-0.0178734
-0.011862
-0.00576451
0.000412602
0.00666284
0.0129796
0.0193563
0.0257861
-0.11663
-0.117435
-0.118196
-0.119034
-0.119951
-0.120894
-0.121813
-0.122663
-0.123401
-0.123991
-0.124402
-0.12461
-0.124593
-0.124337
-0.123831
-0.123065
-0.122037
-0.120743
-0.119183
-0.117359
-0.115275
-0.112936
-0.110347
-0.107514
-0.104446
-0.10115
-0.097633
-0.0939044
-0.0899723
-0.0858452
-0.0815314
-0.0770391
-0.0723766
-0.0675519
-0.0625728
-0.057447
-0.052182
-0.0467851
-0.0412634
-0.0356238
-0.0298733
-0.0240185
-0.0180659
-0.0120221
-0.00589346
0.000313472
0.00659224
0.0129363
0.0193392
0.0257939
-0.116117
-0.117468
-0.1186
-0.119714
-0.120841
-0.121931
-0.122949
-0.123859
-0.12463
-0.125231
-0.125638
-0.125829
-0.125788
-0.125502
-0.12496
-0.124157
-0.123088
-0.121753
-0.12015
-0.118284
-0.116158
-0.113776
-0.111144
-0.10827
-0.105161
-0.101824
-0.0982676
-0.0945003
-0.0905303
-0.0863662
-0.0820162
-0.0774888
-0.072792
-0.067934
-0.0629225
-0.0577653
-0.0524698
-0.0470434
-0.0414932
-0.035826
-0.0300489
-0.0241683
-0.0181909
-0.0121232
-0.00597153
0.000257556
0.00655766
0.0129223
0.0193448
0.0258187
-0.11499
-0.116905
-0.118413
-0.119817
-0.121179
-0.12245
-0.123601
-0.124608
-0.125446
-0.126091
-0.126524
-0.126726
-0.126686
-0.126391
-0.125834
-0.125011
-0.123919
-0.122557
-0.120926
-0.119029
-0.116872
-0.114458
-0.111794
-0.108888
-0.105746
-0.102377
-0.0987892
-0.0949904
-0.0909895
-0.086795
-0.0824152
-0.0778585
-0.0731332
-0.0682472
-0.0632085
-0.0580248
-0.0527036
-0.0472521
-0.0416774
-0.0359867
-0.0301866
-0.0242838
-0.0182849
-0.0121963
-0.00602447
0.000224158
0.00654315
0.012926
0.0193662
0.0258572
-0.113392
-0.115895
-0.117796
-0.119508
-0.121128
-0.122604
-0.123916
-0.125047
-0.125977
-0.12669
-0.12717
-0.127404
-0.127382
-0.127095
-0.126539
-0.125709
-0.124605
-0.123227
-0.121577
-0.11966
-0.117479
-0.115041
-0.112352
-0.109419
-0.106251
-0.102856
-0.0992408
-0.0954154
-0.091388
-0.0871672
-0.0827615
-0.0781793
-0.0734289
-0.0685183
-0.0634556
-0.0582482
-0.0529039
-0.0474299
-0.0418334
-0.0361213
-0.0303003
-0.0243773
-0.0183587
-0.0122509
-0.00606044
0.000206315
0.00654294
0.0129429
0.0193998
0.0259071
-0.111406
-0.114493
-0.11679
-0.118818
-0.120709
-0.122407
-0.123898
-0.125172
-0.126216
-0.127017
-0.127564
-0.127848
-0.127861
-0.127598
-0.127056
-0.126233
-0.125129
-0.123747
-0.122089
-0.120159
-0.117964
-0.11551
-0.112803
-0.109851
-0.106663
-0.103247
-0.0996114
-0.0957648
-0.091716
-0.0874738
-0.0830469
-0.0784436
-0.0736722
-0.068741
-0.0636578
-0.0584305
-0.0530665
-0.0475731
-0.0419577
-0.036227
-0.0303879
-0.0244471
-0.018411
-0.0122863
-0.00607919
0.000203825
0.00655636
0.012972
0.0194441
0.0259664
-0.109115
-0.112769
-0.115455
-0.117801
-0.119968
-0.121899
-0.123583
-0.125016
-0.126188
-0.127093
-0.127723
-0.128071
-0.128134
-0.127909
-0.127394
-0.126589
-0.125497
-0.124121
-0.122464
-0.120531
-0.11833
-0.115867
-0.11315
-0.110186
-0.106985
-0.103554
-0.0999028
-0.0960403
-0.0919753
-0.0877166
-0.0832729
-0.0786528
-0.0738647
-0.0689167
-0.0638169
-0.058573
-0.0531927
-0.0476832
-0.0420518
-0.0363054
-0.0304508
-0.0244947
-0.0184436
-0.0123041
-0.0060824
0.000214976
0.00658165
0.0130112
0.0194971
0.026033
-0.106589
-0.110785
-0.11385
-0.116511
-0.118955
-0.121123
-0.123008
-0.124609
-0.125922
-0.126943
-0.127668
-0.128093
-0.128218
-0.128042
-0.127565
-0.12679
-0.125719
-0.124357
-0.12271
-0.120783
-0.118584
-0.11612
-0.113398
-0.110429
-0.10722
-0.10378
-0.100119
-0.0962459
-0.0921695
-0.0878989
-0.0834428
-0.0788101
-0.0740091
-0.0690482
-0.0639353
-0.0586784
-0.0532849
-0.0477624
-0.0421179
-0.0363586
-0.0304911
-0.0245222
-0.0184584
-0.0123062
-0.00607196
0.00023789
0.00661695
0.0130588
0.019557
0.0261052
-0.103888
-0.108598
-0.112027
-0.114994
-0.117712
-0.120118
-0.122207
-0.123983
-0.125444
-0.12659
-0.127419
-0.127932
-0.128128
-0.128011
-0.127581
-0.126844
-0.125804
-0.124465
-0.122835
-0.120921
-0.118731
-0.116272
-0.113553
-0.110584
-0.107373
-0.10393
-0.100264
-0.096385
-0.0923017
-0.0880236
-0.0835595
-0.0789181
-0.0741082
-0.0691379
-0.0640155
-0.0587487
-0.0533453
-0.0478127
-0.0421581
-0.0363884
-0.0305106
-0.0245313
-0.018457
-0.0122943
-0.00604956
0.000270885
0.00666059
0.0131131
0.019622
0.0261811
-0.101061
-0.106254
-0.11003
-0.113292
-0.116278
-0.118919
-0.121213
-0.123166
-0.12478
-0.126056
-0.126997
-0.127604
-0.12788
-0.127829
-0.127455
-0.126763
-0.12576
-0.124453
-0.122847
-0.120953
-0.118777
-0.11633
-0.113619
-0.110656
-0.107448
-0.104007
-0.100341
-0.096461
-0.0923754
-0.088094
-0.0836257
-0.0789796
-0.0741644
-0.0691883
-0.0640596
-0.0587863
-0.053376
-0.0478362
-0.0421741
-0.0363968
-0.0305111
-0.0245238
-0.0184413
-0.0122702
-0.0060168
0.000312377
0.00671096
0.0131725
0.0196906
0.0262591
-0.0981494
-0.103794
-0.107898
-0.111442
-0.114687
-0.117558
-0.120054
-0.122184
-0.123953
-0.125364
-0.12642
-0.127127
-0.127488
-0.12751
-0.127198
-0.126559
-0.1256
-0.124329
-0.122754
-0.120885
-0.11873
-0.1163
-0.113603
-0.11065
-0.107451
-0.104016
-0.100355
-0.0964778
-0.092394
-0.0881132
-0.0836447
-0.0789975
-0.0741804
-0.0692019
-0.0640702
-0.0587933
-0.053379
-0.0478348
-0.042168
-0.0363855
-0.0304944
-0.0245012
-0.0184127
-0.0122352
-0.0059752
0.000360884
0.00676662
0.0132356
0.0197613
0.0263378
-0.0951884
-0.101253
-0.105665
-0.109478
-0.112971
-0.116064
-0.118758
-0.121064
-0.122987
-0.124533
-0.125708
-0.126518
-0.126969
-0.127068
-0.126823
-0.126241
-0.125331
-0.124102
-0.122564
-0.120725
-0.118597
-0.116188
-0.11351
-0.110572
-0.107386
-0.103962
-0.10031
-0.0964394
-0.0923612
-0.0880849
-0.0836196
-0.0789748
-0.0741591
-0.0691812
-0.0640495
-0.058772
-0.0533565
-0.0478106
-0.0421415
-0.0363563
-0.030462
-0.0244653
-0.0183728
-0.0121909
-0.00592616
0.000415047
0.00682625
0.013301
0.0198329
0.0264159
-0.0922062
-0.0986604
-0.103361
-0.107428
-0.111157
-0.114464
-0.117349
-0.119827
-0.121903
-0.123585
-0.124879
-0.125794
-0.126337
-0.126517
-0.126343
-0.125822
-0.124966
-0.123784
-0.122285
-0.120482
-0.118383
-0.116001
-0.113346
-0.110428
-0.107259
-0.103849
-0.100209
-0.0963497
-0.0922808
-0.0880123
-0.0835537
-0.0789143
-0.0741032
-0.069129
-0.0640001
-0.0587247
-0.0533106
-0.0477654
-0.0420965
-0.0363109
-0.0304157
-0.0244175
-0.018323
-0.0121386
-0.00587096
0.000473635
0.00688867
0.0133676
0.0199042
0.0264925
-0.0892268
-0.0960413
-0.101011
-0.105317
-0.109269
-0.11278
-0.11585
-0.118494
-0.12072
-0.122535
-0.123949
-0.12497
-0.125607
-0.12587
-0.125769
-0.125313
-0.124514
-0.123381
-0.121927
-0.120162
-0.118098
-0.115746
-0.113117
-0.110222
-0.107074
-0.103682
-0.100058
-0.096213
-0.0921565
-0.087899
-0.08345
-0.0788192
-0.0740154
-0.0690476
-0.0639243
-0.0586535
-0.0532433
-0.0477012
-0.0420347
-0.0362509
-0.0303568
-0.0243592
-0.0182646
-0.0120796
-0.00581076
0.000535558
0.00695284
0.0134345
0.0199742
0.0265664
-0.0862696
-0.0934169
-0.0986373
-0.103166
-0.10733
-0.111034
-0.114281
-0.117085
-0.119456
-0.121403
-0.122935
-0.124061
-0.124792
-0.12514
-0.125113
-0.124724
-0.123984
-0.122904
-0.121497
-0.119774
-0.117747
-0.115428
-0.112829
-0.109961
-0.106836
-0.103466
-0.0998613
-0.0960332
-0.0919922
-0.0877485
-0.083312
-0.0786923
-0.0738986
-0.0689398
-0.0638243
-0.0585606
-0.0531566
-0.0476198
-0.0419579
-0.036178
-0.030287
-0.0242917
-0.0181989
-0.012015
-0.00574661
0.000599854
0.00701786
0.0135008
0.0200423
0.0266369
-0.0833509
-0.0908049
-0.0962575
-0.100995
-0.105357
-0.109244
-0.112659
-0.115618
-0.118129
-0.120203
-0.12185
-0.12308
-0.123906
-0.124337
-0.124387
-0.124066
-0.123387
-0.122362
-0.121004
-0.119326
-0.117339
-0.115056
-0.112489
-0.10965
-0.106552
-0.103206
-0.0996227
-0.0958144
-0.0917915
-0.0875642
-0.0831427
-0.0785367
-0.0737554
-0.0688079
-0.0637027
-0.0584482
-0.0530524
-0.0475231
-0.0418677
-0.0360935
-0.0302074
-0.0242163
-0.0181269
-0.0119458
-0.00567944
0.000665673
0.00708298
0.0135658
0.0201078
0.0267037
-0.0804841
-0.0882202
-0.0938878
-0.0988196
-0.103367
-0.107427
-0.111001
-0.114106
-0.116752
-0.118949
-0.120709
-0.122041
-0.122959
-0.123475
-0.1236
-0.123348
-0.122731
-0.121763
-0.120456
-0.118824
-0.116879
-0.114634
-0.112102
-0.109295
-0.106225
-0.102905
-0.0993468
-0.0955607
-0.0915581
-0.0873496
-0.0829454
-0.0783552
-0.0735885
-0.0686544
-0.0635615
-0.0583182
-0.0529326
-0.0474126
-0.0417656
-0.0359988
-0.0301194
-0.0241341
-0.0180498
-0.0118729
-0.00561004
0.000732279
0.0071475
0.0136289
0.0201702
0.026766
-0.0776799
-0.0856753
-0.0915414
-0.0966538
-0.101374
-0.105596
-0.109321
-0.112565
-0.11534
-0.117656
-0.119524
-0.120956
-0.121965
-0.122563
-0.122764
-0.12258
-0.122026
-0.121115
-0.11986
-0.118276
-0.116374
-0.114169
-0.111673
-0.1089
-0.105862
-0.10257
-0.0990378
-0.0952759
-0.0912958
-0.0871081
-0.0827231
-0.0781507
-0.0734005
-0.0684817
-0.0634029
-0.0581727
-0.0527991
-0.04729
-0.041653
-0.0358954
-0.0300241
-0.0240462
-0.0179683
-0.0117971
-0.00553917
0.000799035
0.00721086
0.0136896
0.0202289
0.0268235
-0.074947
-0.0831803
-0.0892297
-0.0945094
-0.099391
-0.103764
-0.107631
-0.111007
-0.113905
-0.116333
-0.118306
-0.119834
-0.120932
-0.121611
-0.121887
-0.121772
-0.12128
-0.120426
-0.119225
-0.117688
-0.115831
-0.113667
-0.11121
-0.108472
-0.105466
-0.102204
-0.0986998
-0.094964
-0.091008
-0.0868428
-0.0824788
-0.077926
-0.073194
-0.0682921
-0.0632291
-0.0580135
-0.0526535
-0.0471569
-0.0415315
-0.0357844
-0.0299228
-0.0239536
-0.0178835
-0.0117193
-0.00546747
0.000865399
0.00727264
0.0137475
0.0202836
0.026876
-0.0722926
-0.080744
-0.0869619
-0.0923965
-0.097428
-0.101943
-0.105942
-0.109443
-0.112456
-0.114993
-0.117066
-0.118687
-0.11987
-0.120629
-0.120977
-0.12093
-0.120501
-0.119704
-0.118555
-0.117068
-0.115257
-0.113135
-0.110716
-0.108014
-0.105042
-0.101812
-0.098337
-0.0946286
-0.0906982
-0.086557
-0.0822155
-0.0776837
-0.0729715
-0.068088
-0.0630421
-0.0578426
-0.0524975
-0.0470149
-0.0414022
-0.035667
-0.0298163
-0.0238571
-0.0177961
-0.01164
-0.00539549
0.000930916
0.00733248
0.0138024
0.0203343
0.0269235
-0.0697221
-0.078373
-0.0847461
-0.0903237
-0.0954941
-0.100141
-0.104264
-0.107882
-0.111005
-0.113645
-0.115813
-0.117523
-0.118789
-0.119625
-0.120045
-0.120063
-0.119695
-0.118956
-0.11786
-0.116421
-0.114656
-0.112576
-0.110198
-0.107533
-0.104595
-0.101398
-0.0979532
-0.0942733
-0.0903698
-0.0862538
-0.081936
-0.0774265
-0.0727352
-0.0678713
-0.062844
-0.0576617
-0.0523328
-0.0468652
-0.0412666
-0.0355444
-0.0297057
-0.0237576
-0.0177067
-0.0115599
-0.00532368
0.000995229
0.00739013
0.0138541
0.0203808
0.0269658
-0.0672397
-0.0760732
-0.0825887
-0.0882981
-0.0935972
-0.0983665
-0.102606
-0.106334
-0.10956
-0.112297
-0.114556
-0.116351
-0.117697
-0.118606
-0.119095
-0.119178
-0.11887
-0.118187
-0.117143
-0.115754
-0.114034
-0.111998
-0.109659
-0.107032
-0.10413
-0.100965
-0.097552
-0.0939016
-0.0900259
-0.0859361
-0.081643
-0.0771568
-0.0724874
-0.0676443
-0.0626364
-0.0574725
-0.0521608
-0.0467093
-0.0411258
-0.0354176
-0.0295919
-0.0236558
-0.017616
-0.0114794
-0.00525245
0.00105805
0.00744537
0.0139025
0.0204233
0.0270031
-0.0648486
-0.0738488
-0.0804949
-0.0863258
-0.0917438
-0.0966267
-0.100974
-0.104805
-0.108128
-0.110956
-0.113302
-0.115178
-0.1166
-0.117581
-0.118137
-0.118282
-0.118033
-0.117405
-0.116412
-0.115072
-0.113397
-0.111403
-0.109105
-0.106516
-0.103649
-0.100519
-0.097137
-0.0935167
-0.0896695
-0.0856067
-0.081339
-0.076877
-0.0722304
-0.0674088
-0.0624213
-0.0572766
-0.0519829
-0.0465484
-0.0409808
-0.0352875
-0.0294757
-0.0235525
-0.0175246
-0.011399
-0.00518215
0.00111912
0.00749806
0.0139476
0.0204615
0.0270355
-0.062551
-0.0717034
-0.0784691
-0.0844118
-0.0899394
-0.0949276
-0.0993757
-0.103302
-0.106716
-0.109631
-0.112058
-0.114011
-0.115505
-0.116555
-0.117175
-0.117381
-0.117189
-0.116614
-0.115672
-0.114379
-0.112749
-0.110798
-0.10854
-0.105988
-0.103158
-0.100061
-0.0967117
-0.0931219
-0.0893036
-0.0852682
-0.0810266
-0.0765893
-0.0719662
-0.0671668
-0.0622003
-0.0570755
-0.0518006
-0.0463838
-0.0408328
-0.0351551
-0.0293579
-0.0234482
-0.017433
-0.0113191
-0.00511308
0.00117826
0.0075481
0.0139893
0.0204957
0.0270631
-0.0603485
-0.0696396
-0.0765148
-0.08256
-0.0881886
-0.0932741
-0.0978155
-0.101831
-0.10533
-0.108326
-0.11083
-0.112856
-0.114419
-0.115534
-0.116216
-0.11648
-0.116343
-0.115821
-0.114928
-0.113681
-0.112096
-0.110186
-0.107968
-0.105454
-0.102659
-0.0995962
-0.0962791
-0.09272
-0.0889309
-0.0849233
-0.0807082
-0.076296
-0.0716968
-0.0669201
-0.0619752
-0.0568707
-0.0516151
-0.0462165
-0.0406827
-0.0350212
-0.0292391
-0.0233437
-0.0173417
-0.0112401
-0.0050455
0.0012353
0.00759544
0.0140277
0.020526
0.0270863
-0.058242
-0.0676593
-0.0746345
-0.0807737
-0.0864954
-0.0916707
-0.0962984
-0.100397
-0.103976
-0.107047
-0.109623
-0.111718
-0.113347
-0.114524
-0.115265
-0.115585
-0.115501
-0.115029
-0.114184
-0.112983
-0.11144
-0.109572
-0.107392
-0.104916
-0.102156
-0.0991273
-0.0958423
-0.0923139
-0.0885541
-0.0845744
-0.0803859
-0.0759991
-0.0714241
-0.0666704
-0.0617473
-0.0566636
-0.0514277
-0.0460477
-0.0405315
-0.0348866
-0.0291202
-0.0232394
-0.0172512
-0.0111623
-0.00497964
0.00129014
0.00764007
0.014063
0.0205526
0.0271051
-0.0562319
-0.065764
-0.0728304
-0.0790557
-0.0848627
-0.0901208
-0.0948284
-0.0990035
-0.102656
-0.105798
-0.108443
-0.110603
-0.112293
-0.113529
-0.114326
-0.1147
-0.114667
-0.114243
-0.113445
-0.112288
-0.110787
-0.108959
-0.106817
-0.104377
-0.101653
-0.0986573
-0.0954042
-0.0919063
-0.0881756
-0.0842238
-0.080062
-0.0757006
-0.0711498
-0.0664192
-0.0615182
-0.0564554
-0.0512395
-0.0458784
-0.0403802
-0.0347522
-0.0290017
-0.0231359
-0.0171617
-0.0110861
-0.00491566
0.00134269
0.007682
0.0140951
0.0205757
0.02712
-0.054318
-0.0639543
-0.071104
-0.077408
-0.0832933
-0.0886275
-0.0934088
-0.0976551
-0.101377
-0.104585
-0.107293
-0.109514
-0.111263
-0.112554
-0.113405
-0.11383
-0.113845
-0.113468
-0.112714
-0.1116
-0.11014
-0.108351
-0.106246
-0.103842
-0.101152
-0.098189
-0.0949674
-0.0914996
-0.0877978
-0.0838737
-0.0797383
-0.0754022
-0.0708756
-0.0661682
-0.0612892
-0.0562476
-0.0510517
-0.0457097
-0.0402295
-0.0346185
-0.0288842
-0.0230337
-0.0170738
-0.0110116
-0.00485372
0.00139289
0.00772127
0.0141242
0.0205954
0.0271312
-0.0525
-0.0622309
-0.0694562
-0.0758321
-0.0817891
-0.0871933
-0.0920425
-0.0963546
-0.10014
-0.10341
-0.106177
-0.108455
-0.110259
-0.111603
-0.112504
-0.112978
-0.11304
-0.112707
-0.111996
-0.110922
-0.109502
-0.10775
-0.105682
-0.103313
-0.100656
-0.0977252
-0.0945345
-0.0910963
-0.0874229
-0.0835261
-0.0794168
-0.0751058
-0.0706032
-0.0659188
-0.0610618
-0.0560412
-0.0508653
-0.0455423
-0.0400802
-0.0344864
-0.0287684
-0.0229331
-0.0169877
-0.0109391
-0.00479397
0.0014407
0.00775795
0.0141504
0.020612
0.0271392
-0.0507772
-0.0605936
-0.0678877
-0.0743292
-0.0803517
-0.08582
-0.0907317
-0.0951047
-0.0989489
-0.102276
-0.105098
-0.10743
-0.109285
-0.110679
-0.111628
-0.112147
-0.112254
-0.111963
-0.111293
-0.110259
-0.108876
-0.107161
-0.105128
-0.102792
-0.100168
-0.0972684
-0.0941077
-0.0906984
-0.0870529
-0.0831828
-0.0790993
-0.074813
-0.0703341
-0.0656724
-0.0608372
-0.0558373
-0.0506813
-0.0453772
-0.0399331
-0.0343565
-0.0286546
-0.0228347
-0.0169038
-0.0108688
-0.00473651
0.00148612
0.00779212
0.014174
0.0206257
0.0271439
-0.0491486
-0.0590424
-0.0663989
-0.0729001
-0.0789824
-0.0845094
-0.0894785
-0.0939074
-0.0978062
-0.101186
-0.10406
-0.106441
-0.108345
-0.109785
-0.110779
-0.111342
-0.11149
-0.11124
-0.110609
-0.109612
-0.108266
-0.106585
-0.104586
-0.102283
-0.0996897
-0.0968207
-0.0936892
-0.0903081
-0.0866897
-0.0828458
-0.0787873
-0.0745252
-0.0700696
-0.0654303
-0.0606164
-0.055637
-0.0505006
-0.0452152
-0.039789
-0.0342292
-0.0285435
-0.0227388
-0.0168223
-0.0108009
-0.00468145
0.00152914
0.00782384
0.0141952
0.020637
0.0271461
-0.0476131
-0.0575768
-0.0649898
-0.0715452
-0.0776821
-0.0832627
-0.0882844
-0.0927648
-0.0967138
-0.100143
-0.103064
-0.105492
-0.10744
-0.108924
-0.10996
-0.110564
-0.110752
-0.11054
-0.109946
-0.108985
-0.107673
-0.106026
-0.104059
-0.101787
-0.0992242
-0.0963843
-0.093281
-0.0899272
-0.0863351
-0.0825165
-0.0784826
-0.074244
-0.0698111
-0.0651936
-0.0604007
-0.0554413
-0.0503241
-0.0450571
-0.0396483
-0.0341053
-0.0284354
-0.0226458
-0.0167435
-0.0107356
-0.00462889
0.00156974
0.00785318
0.0142139
0.0206458
0.027146
-0.0461695
-0.0561962
-0.0636603
-0.0702648
-0.0764512
-0.0820808
-0.0871506
-0.0916783
-0.0956735
-0.0991476
-0.102113
-0.104584
-0.106574
-0.108099
-0.109174
-0.109816
-0.110041
-0.109866
-0.109306
-0.108379
-0.1071
-0.105485
-0.103549
-0.101307
-0.0987731
-0.0959612
-0.0928851
-0.0895574
-0.0859907
-0.0821966
-0.0781864
-0.0739708
-0.0695599
-0.0649635
-0.060191
-0.0552511
-0.0501526
-0.0449035
-0.0395118
-0.0339851
-0.0283308
-0.022556
-0.0166677
-0.0106731
-0.00457889
0.00160795
0.00788026
0.0142305
0.0206525
0.0271437
-0.0448165
-0.0548997
-0.06241
-0.069059
-0.0752904
-0.0809645
-0.0860783
-0.0906491
-0.0946868
-0.0982024
-0.101209
-0.103719
-0.105748
-0.107311
-0.108423
-0.109101
-0.109361
-0.109219
-0.108693
-0.107798
-0.10655
-0.104965
-0.103058
-0.100845
-0.0983383
-0.0955532
-0.0925029
-0.0892004
-0.0856581
-0.0818876
-0.0779002
-0.0737066
-0.069317
-0.064741
-0.0599882
-0.0550673
-0.0499868
-0.0447552
-0.0393801
-0.0338693
-0.0282301
-0.0224696
-0.0165951
-0.0106134
-0.00453149
0.00164378
0.00790517
0.0142451
0.0206575
0.0271396
-0.0435526
-0.0536867
-0.0612384
-0.0679276
-0.0741997
-0.0799143
-0.085068
-0.0896783
-0.0937549
-0.0973087
-0.100352
-0.102899
-0.104964
-0.106562
-0.107709
-0.10842
-0.108713
-0.108603
-0.108107
-0.107242
-0.106024
-0.104467
-0.102588
-0.100402
-0.0979214
-0.0951618
-0.0921362
-0.0888577
-0.0853386
-0.0815907
-0.0776252
-0.0734527
-0.0690834
-0.0645271
-0.0597932
-0.0548905
-0.0498276
-0.0446127
-0.0392537
-0.0337582
-0.0281336
-0.0223871
-0.0165259
-0.0105568
-0.00448675
0.00167724
0.00792795
0.0142578
0.0206607
0.027134
-0.0423764
-0.0525559
-0.0601449
-0.0668703
-0.0731792
-0.0789304
-0.0841205
-0.0887667
-0.0928787
-0.0964674
-0.0995455
-0.102126
-0.104224
-0.105855
-0.107033
-0.107775
-0.108098
-0.108018
-0.107551
-0.106715
-0.105524
-0.103994
-0.102141
-0.0999797
-0.0975242
-0.0947885
-0.0917863
-0.0885305
-0.0850336
-0.0813072
-0.0773624
-0.0732101
-0.0688602
-0.0643227
-0.0596068
-0.0547216
-0.0496754
-0.0444766
-0.039133
-0.0336522
-0.0280417
-0.0223087
-0.0164602
-0.0105033
-0.00444473
0.00170835
0.00794874
0.0142688
0.0206625
0.0271274
-0.0412865
-0.0515066
-0.0591289
-0.0658868
-0.0722288
-0.0780131
-0.083236
-0.0879149
-0.0920591
-0.0956797
-0.0987891
-0.101401
-0.103529
-0.105189
-0.106397
-0.107168
-0.107519
-0.107467
-0.107027
-0.106216
-0.105051
-0.103546
-0.101718
-0.0995802
-0.0971478
-0.0944348
-0.0914546
-0.0882203
-0.0847442
-0.0810381
-0.077113
-0.0729797
-0.0686483
-0.0641286
-0.0594299
-0.0545612
-0.0495309
-0.0443474
-0.0390185
-0.0335518
-0.0279548
-0.0222346
-0.0163983
-0.010453
-0.00440546
0.00173715
0.00796762
0.0142783
0.0206632
0.0271199
-0.0402815
-0.0505377
-0.0581897
-0.0649766
-0.0713484
-0.0771624
-0.082415
-0.0871233
-0.0912968
-0.0949463
-0.0980843
-0.100724
-0.10288
-0.104568
-0.105802
-0.1066
-0.106977
-0.10695
-0.106535
-0.105748
-0.104607
-0.103126
-0.10132
-0.0992044
-0.0967937
-0.0941017
-0.0911422
-0.087928
-0.0844715
-0.0807844
-0.0768778
-0.0727624
-0.0684484
-0.0639455
-0.059263
-0.0544099
-0.0493948
-0.0442257
-0.0389107
-0.0334573
-0.027873
-0.022165
-0.0163403
-0.010406
-0.004369
0.00176364
0.00798467
0.0142864
0.0206628
0.0271116
-0.0393599
-0.0496481
-0.0573265
-0.0641394
-0.0705376
-0.0763783
-0.0816575
-0.0863924
-0.0905923
-0.0942679
-0.0974318
-0.100097
-0.102278
-0.103991
-0.10525
-0.106072
-0.106472
-0.106469
-0.106076
-0.105313
-0.104193
-0.102733
-0.100949
-0.0988537
-0.0964629
-0.0937906
-0.0908502
-0.0876547
-0.0842165
-0.0805471
-0.0766578
-0.0725591
-0.0682613
-0.0637741
-0.0591069
-0.0542684
-0.0492673
-0.0441118
-0.0388099
-0.0333691
-0.0277968
-0.0221002
-0.0162864
-0.0103624
-0.00433537
0.00178785
0.00799997
0.0142932
0.0206616
0.0271029
-0.0385205
-0.0488368
-0.0565387
-0.0633745
-0.0697963
-0.0756607
-0.0809637
-0.0857223
-0.0899459
-0.0936451
-0.0968322
-0.0995205
-0.101724
-0.103459
-0.104741
-0.105584
-0.106007
-0.106024
-0.105653
-0.10491
-0.10381
-0.10237
-0.100605
-0.0985288
-0.0961565
-0.0935023
-0.0905796
-0.0874014
-0.08398
-0.0803271
-0.0764537
-0.0723705
-0.0680878
-0.0636152
-0.058962
-0.0541371
-0.0491492
-0.0440063
-0.0387165
-0.0332874
-0.0277261
-0.0220402
-0.0162366
-0.0103224
-0.00430461
0.00180983
0.00801362
0.0142989
0.0206597
0.0270939
-0.0377621
-0.048103
-0.0558254
-0.0626814
-0.069124
-0.0750094
-0.0803335
-0.0851133
-0.089358
-0.0930782
-0.096286
-0.0989949
-0.101219
-0.102974
-0.104276
-0.105139
-0.105581
-0.105618
-0.105266
-0.104541
-0.10346
-0.102038
-0.10029
-0.098231
-0.0958755
-0.0932377
-0.0903312
-0.0871688
-0.0837628
-0.0801249
-0.0762661
-0.0721972
-0.0679283
-0.0634691
-0.0588289
-0.0540165
-0.0490407
-0.0439095
-0.0386309
-0.0332124
-0.0276614
-0.0219853
-0.0161912
-0.010286
-0.00427673
0.00182959
0.00802564
0.0143035
0.0206573
0.027085
-0.0370833
-0.0474457
-0.055186
-0.0620596
-0.0685204
-0.0744243
-0.079767
-0.0845655
-0.0888288
-0.0925676
-0.0957938
-0.0985208
-0.100763
-0.102536
-0.103856
-0.104737
-0.105197
-0.105251
-0.104915
-0.104208
-0.103143
-0.101737
-0.100005
-0.0979609
-0.0956206
-0.0929977
-0.0901058
-0.0869577
-0.0835657
-0.0799414
-0.0760959
-0.0720399
-0.0677835
-0.0633365
-0.058708
-0.0539071
-0.0489422
-0.0438216
-0.0385531
-0.0331444
-0.0276028
-0.0219357
-0.0161502
-0.0102532
-0.00425175
0.00184714
0.00803609
0.0143073
0.0206547
0.0270764
-0.0364832
-0.046864
-0.0546197
-0.0615086
-0.0679852
-0.0739051
-0.079264
-0.0840788
-0.0883585
-0.0921135
-0.0953558
-0.0980988
-0.100357
-0.102146
-0.103481
-0.104378
-0.104853
-0.104923
-0.104603
-0.103909
-0.102859
-0.101468
-0.0997492
-0.0977193
-0.0953925
-0.092783
-0.0899041
-0.0867687
-0.0833891
-0.079777
-0.0759434
-0.071899
-0.0676539
-0.0632178
-0.0585999
-0.0538092
-0.0488542
-0.043743
-0.0384836
-0.0330837
-0.0275505
-0.0218915
-0.0161137
-0.0102241
-0.00422968
0.00186248
0.00804501
0.0143101
0.0206516
0.0270679
-0.0359607
-0.0463572
-0.054126
-0.0610279
-0.067518
-0.0734516
-0.0788244
-0.0836533
-0.0879471
-0.0917161
-0.0949722
-0.0977291
-0.100001
-0.101804
-0.103153
-0.104063
-0.104552
-0.104635
-0.104328
-0.103648
-0.10261
-0.101231
-0.0995247
-0.0975069
-0.095192
-0.0925941
-0.0897266
-0.0866024
-0.0832338
-0.0796323
-0.0758092
-0.071775
-0.0675398
-0.0631134
-0.0585048
-0.0537231
-0.0487767
-0.0436739
-0.0384226
-0.0330304
-0.0275047
-0.0218528
-0.0160818
-0.0101987
-0.0042106
0.00187562
0.00805254
0.0143122
0.0206485
0.0270602
-0.035515
-0.0459246
-0.0537043
-0.060617
-0.0671184
-0.0730636
-0.0784482
-0.0832891
-0.0875948
-0.0913755
-0.0946434
-0.097412
-0.0996957
-0.10151
-0.102871
-0.103793
-0.104293
-0.104387
-0.104092
-0.103423
-0.102396
-0.101027
-0.0993316
-0.0973241
-0.0950193
-0.0924315
-0.0895738
-0.0864593
-0.0831
-0.0795078
-0.0756936
-0.0716683
-0.0674417
-0.0630236
-0.0584231
-0.0536491
-0.0487102
-0.0436145
-0.0383702
-0.0329847
-0.0274654
-0.0218197
-0.0160546
-0.0101772
-0.00419445
0.00188662
0.00805862
0.0143135
0.0206455
0.0270529
-0.0351454
-0.0455655
-0.053354
-0.0602756
-0.0667862
-0.0727409
-0.0781353
-0.082986
-0.0873015
-0.091092
-0.0943696
-0.0971477
-0.0994411
-0.101265
-0.102635
-0.103567
-0.104077
-0.104181
-0.103895
-0.103235
-0.102217
-0.100857
-0.0991704
-0.0971714
-0.0948752
-0.0922957
-0.0894463
-0.0863397
-0.0829883
-0.0794038
-0.0755972
-0.0715792
-0.0673599
-0.0629487
-0.0583549
-0.0535874
-0.0486547
-0.0435652
-0.0383266
-0.0329467
-0.0274328
-0.0217923
-0.0160321
-0.0101595
-0.00418127
0.00189543
0.00806322
0.0143142
0.0206426
0.0270461
-0.0348511
-0.0452794
-0.0530748
-0.0600032
-0.0665211
-0.0724834
-0.0778855
-0.0827441
-0.0870674
-0.0908656
-0.0941508
-0.0969366
-0.0992376
-0.101069
-0.102447
-0.103387
-0.103904
-0.104016
-0.103737
-0.103085
-0.102074
-0.100721
-0.0990414
-0.0970493
-0.0947599
-0.0921871
-0.0893442
-0.086244
-0.0828989
-0.0793206
-0.0755201
-0.0715081
-0.0672945
-0.0628889
-0.0583005
-0.0535383
-0.0486107
-0.0435259
-0.038292
-0.0329165
-0.027407
-0.0217706
-0.0160145
-0.0101456
-0.00417108
0.00190205
0.00806647
0.0143144
0.0206397
0.0270406
-0.0346315
-0.0450658
-0.0528662
-0.0597997
-0.066323
-0.0722909
-0.0776989
-0.0825633
-0.0868924
-0.0906963
-0.0939872
-0.0967786
-0.0990853
-0.100923
-0.102306
-0.103252
-0.103775
-0.103892
-0.103619
-0.102973
-0.101968
-0.10062
-0.098945
-0.0969581
-0.0946738
-0.092106
-0.0892679
-0.0861725
-0.0828322
-0.0792585
-0.0754626
-0.0714551
-0.067246
-0.0628446
-0.0582603
-0.053502
-0.0485781
-0.0434969
-0.0382664
-0.0328944
-0.0273881
-0.0217549
-0.0160018
-0.0101358
-0.00416402
0.00190653
0.00806863
0.0143141
0.0206367
0.0270357
-0.0344863
-0.0449243
-0.0527279
-0.0596647
-0.0661916
-0.0721634
-0.0775754
-0.0824438
-0.0867768
-0.0905844
-0.0938789
-0.096674
-0.0989845
-0.100826
-0.102213
-0.103162
-0.10369
-0.103811
-0.103542
-0.102899
-0.101897
-0.100553
-0.0988815
-0.096898
-0.0946172
-0.0920527
-0.0892178
-0.0861255
-0.0827882
-0.0792177
-0.075425
-0.0714206
-0.0672143
-0.0628158
-0.0582343
-0.0534785
-0.0485571
-0.0434783
-0.0382502
-0.0328804
-0.0273762
-0.0217452
-0.0159941
-0.01013
-0.00416
0.00190897
0.00806937
0.0143131
0.0206342
0.0270318
-0.0344151
-0.0448549
-0.0526599
-0.0595982
-0.0661269
-0.0721006
-0.0775147
-0.0823853
-0.0867202
-0.0905297
-0.0938261
-0.0966229
-0.0989352
-0.100778
-0.102167
-0.103119
-0.103648
-0.103771
-0.103504
-0.102863
-0.101863
-0.100521
-0.0988508
-0.096869
-0.0945898
-0.0920272
-0.0891942
-0.0861032
-0.0827673
-0.0791985
-0.0754074
-0.0714044
-0.0671996
-0.0628026
-0.0582224
-0.0534678
-0.0485477
-0.04347
-0.0382429
-0.0328743
-0.0273712
-0.0217414
-0.0159912
-0.0101281
-0.00415906
0.00190924
0.00806864
0.0143119
0.0206321
0.0270288
-0.125558
-0.125744
-0.126062
-0.126613
-0.127357
-0.128212
-0.129098
-0.129948
-0.130703
-0.131315
-0.131747
-0.131968
-0.131954
-0.13169
-0.131161
-0.130361
-0.129282
-0.127925
-0.126289
-0.124377
-0.122192
-0.119742
-0.117031
-0.114069
-0.110862
-0.10742
-0.10375
-0.0998632
-0.0957673
-0.0914716
-0.0869849
-0.0823161
-0.0774737
-0.0724659
-0.067301
-0.0619869
-0.0565311
-0.0509412
-0.0452242
-0.0393872
-0.033437
-0.0273802
-0.0212233
-0.0149727
-0.00863469
-0.00221567
0.00427808
0.0108402
0.0174642
0.0241435
-0.125826
-0.126678
-0.12748
-0.128356
-0.129309
-0.130281
-0.131221
-0.132079
-0.132813
-0.133385
-0.133763
-0.133921
-0.133839
-0.133503
-0.132902
-0.132027
-0.130875
-0.129444
-0.127736
-0.125753
-0.123499
-0.12098
-0.118203
-0.115176
-0.111906
-0.108402
-0.104672
-0.100726
-0.0965734
-0.0922222
-0.0876816
-0.0829605
-0.0780672
-0.0730102
-0.0677976
-0.0624373
-0.0569369
-0.0513039
-0.0455453
-0.0396683
-0.0336795
-0.0275855
-0.021393
-0.0151082
-0.00873741
-0.00228695
0.00423689
0.0108278
0.0174793
0.024185
-0.125276
-0.126704
-0.127894
-0.129058
-0.130228
-0.131353
-0.132393
-0.133314
-0.134081
-0.134664
-0.135036
-0.135177
-0.13507
-0.134702
-0.134064
-0.133149
-0.131955
-0.130482
-0.128729
-0.126701
-0.124403
-0.12184
-0.119019
-0.115948
-0.112635
-0.109088
-0.105317
-0.101331
-0.0971383
-0.0927483
-0.0881699
-0.0834117
-0.0784825
-0.0733905
-0.0681439
-0.0627506
-0.0572182
-0.0515541
-0.0457656
-0.0398595
-0.0338426
-0.0277216
-0.0215029
-0.0151929
-0.0087979
-0.0023241
0.00422221
0.0108347
0.0175071
0.0242328
-0.124087
-0.126109
-0.127692
-0.129159
-0.130574
-0.131886
-0.133065
-0.134086
-0.134922
-0.13555
-0.135949
-0.136101
-0.135994
-0.135617
-0.134963
-0.134027
-0.132809
-0.131307
-0.129525
-0.127466
-0.125135
-0.122538
-0.119684
-0.116579
-0.113232
-0.109652
-0.105848
-0.101829
-0.0976038
-0.093182
-0.0885723
-0.0837836
-0.0788244
-0.0737032
-0.0684281
-0.0630069
-0.0574474
-0.051757
-0.0459428
-0.0400119
-0.033971
-0.0278266
-0.0215853
-0.0152534
-0.00883714
-0.00234281
0.00422337
0.0108551
0.017546
0.0242897
-0.12241
-0.125048
-0.127043
-0.128832
-0.130516
-0.132042
-0.133388
-0.134537
-0.135469
-0.136166
-0.136614
-0.136799
-0.13671
-0.136341
-0.135687
-0.134745
-0.133514
-0.131996
-0.130194
-0.128112
-0.125757
-0.123135
-0.120254
-0.117122
-0.113748
-0.11014
-0.106308
-0.102261
-0.0980083
-0.0935591
-0.0889223
-0.0841069
-0.0791215
-0.0739745
-0.0686742
-0.0632283
-0.0576447
-0.0519307
-0.0460936
-0.0401402
-0.0340774
-0.0279118
-0.0216498
-0.0152978
-0.00886199
-0.00234862
0.00423607
0.0108858
0.0175942
0.024355
-0.120334
-0.123584
-0.125992
-0.128111
-0.130077
-0.131834
-0.133366
-0.134664
-0.135713
-0.136502
-0.137019
-0.137255
-0.137203
-0.136858
-0.136219
-0.135283
-0.134052
-0.132529
-0.130718
-0.128625
-0.126255
-0.123616
-0.120716
-0.117564
-0.114169
-0.11054
-0.106686
-0.102617
-0.098342
-0.0938705
-0.0892115
-0.0843741
-0.0793669
-0.0741983