/*--------------------------------*- C++ -*----------------------------------*\
| =========                 |                                                 |
| \\      /  F ield         | OpenFOAM: The Open Source CFD Toolbox           |
|  \\    /   O peration     | Version:                                        |
|   \\  /    A nd           | Website:  www.openfoam.com                      |
|    \\/     M anipulation  |                                                 |
\*---------------------------------------------------------------------------*/
FoamFile
{
    version     2.0;
    format      ascii;
    class       volScalarField;
    location    "0.05";
    object      p;
}
// * * * * * * * * * * * * * * * * * * * * * * * * * * * * * * * * * * * * * //

dimensions      [0 2 -2 0 0 0 0];


internalField   nonuniform List<scalar> 
125000
(
0.0334907
0.0400032
0.046556
0.0531465
0.0597664
0.0664046
0.0730506
0.0796932
0.0863207
0.0929209
0.0994807
0.105986
0.112422
0.118774
0.125025
0.131157
0.137153
0.142995
0.148661
0.154132
0.159388
0.164407
0.169165
0.173642
0.177812
0.181652
0.185139
0.18825
0.190961
0.193247
0.195088
0.196461
0.197346
0.197723
0.197576
0.196886
0.195642
0.193829
0.191438
0.188459
0.184888
0.180718
0.17595
0.170585
0.164628
0.158075
0.150944
0.143403
0.134977
0.12379
0.0334904
0.0400032
0.0465569
0.0531482
0.0597685
0.0664072
0.0730536
0.0796967
0.0863248
0.0929254
0.0994856
0.105991
0.112428
0.11878
0.125031
0.131164
0.137161
0.143003
0.14867
0.154142
0.159398
0.164418
0.169177
0.173654
0.177825
0.181667
0.185155
0.188267
0.190978
0.193266
0.195108
0.196482
0.197369
0.197748
0.197602
0.196914
0.195671
0.19386
0.191471
0.188494
0.184924
0.180756
0.17599
0.170627
0.164672
0.15812
0.150991
0.143451
0.135027
0.123841
0.0334916
0.0400057
0.0465607
0.0531531
0.0597745
0.0664143
0.0730619
0.079706
0.086335
0.0929366
0.0994977
0.106004
0.112442
0.118795
0.125047
0.131181
0.137179
0.143022
0.14869
0.154164
0.159422
0.164443
0.169204
0.173682
0.177855
0.181698
0.185189
0.188302
0.191016
0.193306
0.195151
0.196528
0.197417
0.1978
0.197657
0.196973
0.195733
0.193926
0.191539
0.188566
0.184999
0.180835
0.176072
0.170713
0.164761
0.158213
0.151087
0.14355
0.135128
0.123945
0.0334945
0.0400107
0.0465673
0.0531614
0.0597846
0.0664262
0.0730752
0.0797208
0.0863513
0.0929544
0.0995168
0.106025
0.112464
0.118818
0.125072
0.131207
0.137207
0.143051
0.148722
0.154197
0.159458
0.164481
0.169244
0.173725
0.1779
0.181746
0.18524
0.188357
0.191074
0.193368
0.195216
0.196598
0.197492
0.197879
0.197741
0.197062
0.195827
0.194024
0.191643
0.188675
0.185114
0.180955
0.176197
0.170843
0.164897
0.158354
0.151233
0.1437
0.135282
0.124104
0.0334987
0.0400176
0.0465767
0.0531733
0.0597988
0.0664424
0.0730935
0.0797411
0.0863735
0.0929784
0.0995428
0.106053
0.112494
0.11885
0.125105
0.131243
0.137245
0.143092
0.148764
0.154243
0.159506
0.164531
0.169298
0.173782
0.177961
0.181811
0.185309
0.18843
0.191152
0.193451
0.195304
0.196691
0.197591
0.197984
0.197853
0.19718
0.195952
0.194157
0.191783
0.188821
0.185267
0.181115
0.176365
0.171018
0.165079
0.158543
0.151428
0.143901
0.135489
0.124318
0.0335046
0.0400265
0.0465889
0.0531885
0.0598167
0.0664629
0.0731165
0.0797666
0.0864014
0.0930087
0.0995753
0.106088
0.112531
0.118889
0.125147
0.131287
0.137292
0.143142
0.148817
0.154299
0.159565
0.164595
0.169365
0.173854
0.178037
0.181892
0.185395
0.188522
0.191249
0.193554
0.195414
0.196808
0.197715
0.198116
0.197993
0.197329
0.196109
0.194322
0.191957
0.189005
0.185459
0.181317
0.176576
0.171238
0.165308
0.15878
0.151673
0.144154
0.13575
0.124586
0.0335119
0.0400375
0.0466036
0.0532066
0.059838
0.0664874
0.073144
0.079797
0.0864347
0.0930447
0.0996141
0.106129
0.112575
0.118936
0.125197
0.13134
0.137348
0.143201
0.148881
0.154366
0.159637
0.164671
0.169446
0.173939
0.178128
0.181989
0.185497
0.188631
0.191365
0.193678
0.195546
0.196948
0.197864
0.198275
0.198161
0.197507
0.196298
0.194521
0.192167
0.189225
0.185691
0.181559
0.176829
0.171502
0.165583
0.159066
0.151969
0.14446
0.136064
0.124911
0.0335202
0.0400504
0.0466206
0.0532276
0.0598628
0.0665157
0.0731759
0.0798322
0.0864731
0.0930864
0.0996589
0.106177
0.112626
0.118991
0.125255
0.131402
0.137413
0.14327
0.148954
0.154444
0.159719
0.164758
0.169538
0.174038
0.178233
0.1821
0.185616
0.188757
0.1915
0.193821
0.195698
0.197111
0.198037
0.198459
0.198356
0.197714
0.196517
0.194753
0.192411
0.189483
0.185961
0.181843
0.177126
0.171812
0.165906
0.159401
0.152316
0.144818
0.136434
0.125293
0.03353
0.0400649
0.0466398
0.0532512
0.0598906
0.0665476
0.0732116
0.0798717
0.0865163
0.0931331
0.0997092
0.106231
0.112683
0.119052
0.12532
0.13147
0.137486
0.143347
0.149036
0.154531
0.159811
0.164856
0.169643
0.174149
0.178351
0.182226
0.185751
0.1889
0.191652
0.193984
0.195872
0.197296
0.198234
0.198668
0.198579
0.19795
0.196767
0.195018
0.192691
0.189777
0.186271
0.182167
0.177466
0.172168
0.166276
0.159786
0.152716
0.145231
0.136859
0.125733
0.0335404
0.0400807
0.0466608
0.0532772
0.0599213
0.0665827
0.073251
0.0799153
0.0865639
0.0931846
0.0997645
0.10629
0.112747
0.119119
0.125391
0.131546
0.137566
0.143433
0.149126
0.154627
0.159913
0.164965
0.169758
0.174272
0.178482
0.182366
0.1859
0.189059
0.191822
0.194165
0.196065
0.197502
0.198454
0.198902
0.198828
0.198215
0.197048
0.195315
0.193005
0.190109
0.186619
0.182534
0.17785
0.172569
0.166695
0.160222
0.153168
0.145698
0.137342
0.126233
0.0335517
0.0400978
0.0466835
0.0533052
0.0599544
0.0666207
0.0732936
0.0799623
0.0866152
0.0932402
0.0998243
0.106354
0.112815
0.119192
0.125469
0.131628
0.137653
0.143525
0.149225
0.154731
0.160024
0.165083
0.169884
0.174406
0.178625
0.182519
0.186063
0.189234
0.192008
0.194363
0.196278
0.197729
0.198696
0.199161
0.199103
0.198507
0.197359
0.195645
0.193354
0.190477
0.187007
0.182942
0.178278
0.173017
0.167162
0.160709
0.153673
0.146222
0.137882
0.126794
0.0335635
0.0401159
0.0467076
0.0533349
0.0599895
0.066661
0.073339
0.0800124
0.0866699
0.0932995
0.0998881
0.106422
0.112888
0.119269
0.125551
0.131716
0.137746
0.143624
0.14933
0.154843
0.160143
0.165209
0.170019
0.17455
0.178779
0.182683
0.186239
0.189422
0.19221
0.194579
0.196508
0.197976
0.19896
0.199442
0.199404
0.198827
0.197699
0.196006
0.193737
0.190881
0.187434
0.183391
0.17875
0.173512
0.16768
0.161248
0.154234
0.146802
0.138483
0.127418
0.0335754
0.0401345
0.0467326
0.053366
0.0600264
0.0667034
0.0733865
0.080065
0.0867275
0.0933618
0.0999553
0.106494
0.112965
0.119351
0.125638
0.131808
0.137845
0.143728
0.149441
0.154961
0.160269
0.165343
0.170162
0.174703
0.178943
0.182859
0.186427
0.189623
0.192426
0.194811
0.196757
0.198242
0.199245
0.199747
0.199729
0.199174
0.198069
0.196399
0.194153
0.191323
0.187901
0.183883
0.179267
0.174054
0.168247
0.16184
0.15485
0.147442
0.139145
0.128106
0.0335873
0.0401534
0.0467583
0.0533981
0.0600646
0.0667472
0.0734358
0.0801196
0.0867872
0.0934266
0.100025
0.106569
0.113044
0.119436
0.125728
0.131905
0.137947
0.143837
0.149556
0.155085
0.160401
0.165484
0.170313
0.174865
0.179116
0.183044
0.186626
0.189837
0.192655
0.195057
0.197021
0.198526
0.19955
0.200073
0.200078
0.199548
0.198467
0.196823
0.194604
0.1918
0.188406
0.184416
0.179829
0.174644
0.168865
0.162486
0.155523
0.148141
0.13987
0.128861
0.0335989
0.0401723
0.0467842
0.0534308
0.0601034
0.066792
0.0734863
0.0801755
0.0868484
0.093493
0.100097
0.106646
0.113126
0.119524
0.125822
0.132004
0.138053
0.14395
0.149676
0.155212
0.160538
0.165631
0.17047
0.175033
0.179297
0.183238
0.186834
0.190061
0.192897
0.195317
0.197301
0.198827
0.199873
0.20042
0.20045
0.199946
0.198893
0.197277
0.195087
0.192314
0.18895
0.184991
0.180436
0.175283
0.169535
0.163187
0.156255
0.148902
0.14066
0.129685
0.0336098
0.0401908
0.0468101
0.0534635
0.0601425
0.0668372
0.0735373
0.0802321
0.0869104
0.0935603
0.100169
0.106724
0.11321
0.119613
0.125916
0.132105
0.13816
0.144064
0.149799
0.155343
0.160678
0.165781
0.170631
0.175206
0.179483
0.183439
0.187051
0.190295
0.193149
0.19559
0.197595
0.199143
0.200214
0.200787
0.200844
0.200368
0.199345
0.19776
0.195603
0.192863
0.189533
0.185609
0.181088
0.17597
0.170257
0.163944
0.157046
0.149726
0.141517
0.13058
0.03362
0.0402087
0.0468354
0.0534957
0.0601813
0.0668822
0.0735882
0.0802887
0.0869725
0.0936277
0.100242
0.106802
0.113293
0.119702
0.126012
0.132206
0.138269
0.14418
0.149923
0.155476
0.16082
0.165934
0.170796
0.175384
0.179675
0.183646
0.187275
0.190537
0.193411
0.195873
0.197901
0.199474
0.200571
0.201172
0.201259
0.200814
0.199823
0.198273
0.19615
0.193447
0.190154
0.186268
0.181786
0.176706
0.171033
0.164758
0.157898
0.150614
0.142442
0.131548
0.0336288
0.0402254
0.0468597
0.053527
0.0602193
0.0669264
0.0736383
0.0803445
0.0870338
0.0936944
0.100314
0.106879
0.113376
0.119791
0.126107
0.132308
0.138377
0.144296
0.150047
0.15561
0.160964
0.166089
0.170963
0.175564
0.17987
0.183857
0.187504
0.190786
0.19368
0.196165
0.198218
0.199817
0.200942
0.201574
0.201693
0.201282
0.200327
0.198813
0.196729
0.194065
0.190813
0.186969
0.182529
0.177492
0.171861
0.165629
0.158812
0.151569
0.143438
0.132592
0.033636
0.0402407
0.0468825
0.0535569
0.0602557
0.0669691
0.073687
0.0803988
0.0870935
0.0937595
0.100384
0.106955
0.113458
0.119878
0.1262
0.132407
0.138484
0.144411
0.15017
0.155742
0.161107
0.166243
0.17113
0.175745
0.180066
0.184071
0.187736
0.191039
0.193956
0.196465
0.198544
0.200172
0.201327
0.201991
0.202144
0.20177
0.200853
0.19938
0.197337
0.194717
0.19151
0.187711
0.183318
0.178328
0.172745
0.16656
0.159789
0.152592
0.144507
0.133716
0.0336412
0.0402539
0.0469032
0.0535847
0.0602901
0.0670096
0.0737333
0.0804507
0.0871508
0.093822
0.100452
0.107028
0.113536
0.119962
0.12629
0.132504
0.138588
0.144523
0.15029
0.155872
0.161247
0.166396
0.171296
0.175925
0.180263
0.184286
0.187971
0.191295
0.194236
0.19677
0.198878
0.200535
0.201724
0.202422
0.202612
0.202277
0.201402
0.199972
0.197975
0.195401
0.192243
0.188494
0.184152
0.179214
0.173683
0.16755
0.160832
0.153685
0.145651
0.134921
0.0336442
0.0402646
0.0469214
0.0536098
0.0603217
0.0670472
0.0737765
0.0804993
0.0872046
0.093881
0.100516
0.107097
0.113611
0.120042
0.126376
0.132597
0.138687
0.14463
0.150407
0.155998
0.161384
0.166545
0.171458
0.176103
0.180458
0.184499
0.188205
0.191552
0.194517
0.19708
0.199216
0.200906
0.202129
0.202865
0.203095
0.202802
0.201971
0.200587
0.19864
0.196117
0.193012
0.189318
0.185031
0.18015
0.174676
0.168601
0.16194
0.15485
0.146873
0.13621
0.0336444
0.0402725
0.0469365
0.0536317
0.0603498
0.0670812
0.0738159
0.0805439
0.0872542
0.0939354
0.100575
0.107162
0.11368
0.120117
0.126457
0.132684
0.138781
0.144732
0.150517
0.156118
0.161515
0.166688
0.171616
0.176277
0.180649
0.18471
0.188437
0.191808
0.194799
0.19739
0.199558
0.201283
0.202542
0.203317
0.203589
0.203342
0.202558
0.201225
0.199331
0.196864
0.193816
0.190181
0.185955
0.181136
0.175725
0.169714
0.163116
0.156088
0.148174
0.137588
0.0336413
0.0402769
0.046948
0.0536497
0.0603738
0.0671107
0.0738506
0.0805834
0.0872984
0.0939843
0.100629
0.10722
0.113743
0.120185
0.12653
0.132764
0.138868
0.144826
0.15062
0.156231
0.16164
0.166825
0.171767
0.176444
0.180834
0.184915
0.188664
0.19206
0.195079
0.1977
0.199901
0.201661
0.20296
0.203777
0.204094
0.203894
0.203162
0.201883
0.200046
0.197638
0.194652
0.191082
0.186922
0.182171
0.176829
0.170888
0.164361
0.157402
0.149558
0.139056
0.0336346
0.0402775
0.0469554
0.0536632
0.0603929
0.067135
0.0738797
0.0806171
0.0873364
0.0940265
0.100675
0.10727
0.113798
0.120245
0.126596
0.132835
0.138946
0.144912
0.150714
0.156335
0.161754
0.166953
0.171909
0.176602
0.181011
0.185113
0.188885
0.192307
0.195355
0.198007
0.200243
0.20204
0.20338
0.204241
0.204606
0.204458
0.20378
0.202559
0.200783
0.198439
0.195521
0.19202
0.187932
0.183255
0.177989
0.172124
0.165674
0.158791
0.151025
0.140618
0.0336242
0.0402737
0.0469579
0.0536716
0.0604065
0.0671534
0.0739025
0.080644
0.0873673
0.0940611
0.100714
0.107313
0.113845
0.120296
0.126652
0.132896
0.139014
0.144987
0.150798
0.156428
0.161859
0.16707
0.17204
0.17675
0.181178
0.185301
0.189097
0.192545
0.195623
0.198308
0.20058
0.202417
0.203799
0.204707
0.205123
0.205029
0.204409
0.20325
0.201539
0.199265
0.196419
0.192993
0.188984
0.184387
0.179203
0.173423
0.167058
0.160259
0.152579
0.142277
0.0336093
0.0402651
0.0469553
0.0536742
0.0604139
0.067165
0.0739181
0.0806632
0.0873899
0.094087
0.100743
0.107345
0.113881
0.120336
0.126696
0.132946
0.139069
0.145049
0.150868
0.156508
0.16195
0.167174
0.172159
0.176886
0.181332
0.185477
0.189297
0.192773
0.195881
0.1986
0.20091
0.202788
0.204215
0.205173
0.205641
0.205605
0.205047
0.203954
0.202313
0.200112
0.197344
0.193999
0.190074
0.185565
0.180471
0.174783
0.168511
0.161805
0.154221
0.144035
0.0335897
0.0402514
0.0469468
0.0536705
0.0604144
0.0671693
0.0739257
0.0806739
0.0874034
0.0941033
0.100762
0.107367
0.113906
0.120365
0.126729
0.132983
0.139112
0.145099
0.150925
0.156574
0.162027
0.167263
0.172263
0.177006
0.181472
0.185638
0.189484
0.192987
0.196127
0.198881
0.201229
0.203151
0.204625
0.205634
0.206158
0.206182
0.20569
0.204666
0.203099
0.200978
0.198293
0.195036
0.191202
0.186788
0.181792
0.176204
0.170035
0.16343
0.155952
0.145896
0.0335652
0.040232
0.0469322
0.05366
0.0604074
0.0671654
0.0739246
0.0806752
0.087407
0.094109
0.10077
0.107377
0.113919
0.12038
0.126748
0.133006
0.13914
0.145133
0.150967
0.156624
0.162087
0.167335
0.172349
0.177109
0.181594
0.185783
0.189654
0.193186
0.196358
0.199148
0.201536
0.203501
0.205025
0.206087
0.20667
0.206758
0.206334
0.205384
0.203896
0.201859
0.199263
0.1961
0.192365
0.188053
0.183163
0.177685
0.171628
0.165135
0.157774
0.147862
0.0335352
0.0402066
0.0469108
0.053642
0.0603924
0.0671528
0.073914
0.0806664
0.0873996
0.0941031
0.100765
0.107374
0.113917
0.120381
0.126752
0.133014
0.139152
0.14515
0.15099
0.156656
0.162129
0.167389
0.172417
0.177194
0.181698
0.185908
0.189805
0.193365
0.19657
0.199397
0.201826
0.203837
0.205411
0.206529
0.207173
0.207327
0.206975
0.206103
0.204699
0.202751
0.200249
0.197187
0.193558
0.189357
0.184582
0.179223
0.173289
0.166919
0.159687
0.149935
0.0334996
0.0401748
0.0468822
0.0536161
0.0603686
0.0671307
0.0738933
0.0806466
0.0873807
0.0940848
0.100748
0.107358
0.113902
0.120367
0.12674
0.133004
0.139146
0.145149
0.150996
0.156669
0.162151
0.167422
0.172464
0.177257
0.181779
0.186012
0.189934
0.193523
0.196761
0.199625
0.202096
0.204154
0.20578
0.206955
0.207663
0.207885
0.207609
0.206818
0.205502
0.203648
0.201248
0.198293
0.194777
0.190696
0.186046
0.180816
0.175015
0.16878
0.16169
0.152116
0.0334584
0.0401364
0.0468462
0.053582
0.0603358
0.0670987
0.0738617
0.0806153
0.0873493
0.0940534
0.100716
0.107326
0.113871
0.120337
0.12671
0.132977
0.139122
0.145128
0.15098
0.156661
0.162151
0.167433
0.172488
0.177296
0.181837
0.186091
0.190038
0.193657
0.196927
0.199829
0.202343
0.204448
0.206127
0.207362
0.208134
0.208429
0.20823
0.207525
0.206301
0.204547
0.202254
0.199413
0.196018
0.192065
0.187549
0.18246
0.176805
0.170718
0.163784
0.154406
0.0334112
0.0400912
0.0468025
0.0535392
0.0602934
0.0670564
0.073819
0.0805719
0.0873051
0.0940081
0.10067
0.107279
0.113823
0.120289
0.126663
0.132931
0.139078
0.145087
0.150944
0.15663
0.162128
0.16742
0.172487
0.17731
0.181869
0.186144
0.190116
0.193763
0.197067
0.200006
0.202562
0.204716
0.206449
0.207744
0.208583
0.208951
0.208834
0.208218
0.20709
0.205441
0.20326
0.20054
0.197275
0.193458
0.189087
0.18415
0.178654
0.172727
0.165966
0.156805
0.0333581
0.040039
0.0467509
0.0534876
0.0602413
0.0670033
0.0737646
0.0805159
0.0872474
0.0939486
0.100609
0.107216
0.113758
0.120223
0.126597
0.132865
0.139013
0.145025
0.150885
0.156576
0.162081
0.167382
0.17246
0.177297
0.181873
0.186168
0.190164
0.193839
0.197175
0.200152
0.202751
0.204953
0.206741
0.208097
0.209004
0.209448
0.209414
0.208889
0.207862
0.206322
0.20426
0.201667
0.198539
0.194869
0.190653
0.18588
0.180555
0.174805
0.168232
0.159311
0.033299
0.0399798
0.0466912
0.053427
0.0601792
0.0669393
0.0736984
0.0804472
0.0871759
0.0938743
0.100532
0.107136
0.113676
0.120139
0.126511
0.132778
0.138926
0.144939
0.150802
0.156497
0.162008
0.167317
0.172405
0.177255
0.181847
0.186162
0.19018
0.193883
0.197251
0.200264
0.202905
0.205156
0.206998
0.208415
0.209391
0.209912
0.209963
0.209533
0.20861
0.207183
0.205244
0.202786
0.199802
0.196288
0.192238
0.187641
0.182503
0.176944
0.170578
0.161922
0.033234
0.0399138
0.0466237
0.0533574
0.0601071
0.0668643
0.0736202
0.0803655
0.0870905
0.0937852
0.100439
0.10704
0.113576
0.120036
0.126405
0.132671
0.138818
0.144831
0.150695
0.156393
0.161909
0.167224
0.172322
0.177183
0.181789
0.186122
0.190162
0.193891
0.197289
0.200339
0.203021
0.205319
0.207215
0.208694
0.209739
0.210338
0.210476
0.210142
0.209325
0.208015
0.206205
0.203887
0.201056
0.197705
0.193832
0.189425
0.184488
0.179137
0.172997
0.164632
0.0331635
0.0398411
0.0465484
0.053279
0.0600252
0.0667784
0.07353
0.0802708
0.0869912
0.093681
0.10033
0.106926
0.113458
0.119914
0.12628
0.132542
0.138687
0.144699
0.150563
0.156263
0.161782
0.167102
0.172208
0.177079
0.181699
0.186048
0.190109
0.193862
0.197289
0.200373
0.203095
0.205439
0.207389
0.208928
0.210042
0.210718
0.210943
0.210706
0.209998
0.208809
0.207131
0.204959
0.202287
0.19911
0.195424
0.191219
0.186498
0.181372
0.17548
0.167436
0.0330882
0.0397623
0.0464658
0.0531921
0.0599336
0.0666818
0.0734281
0.0801634
0.0868781
0.0935622
0.100205
0.106796
0.113322
0.119773
0.126134
0.132392
0.138534
0.144544
0.150406
0.156106
0.161627
0.166952
0.172063
0.176943
0.181574
0.185938
0.190017
0.193792
0.197247
0.200363
0.203124
0.205512
0.207513
0.209111
0.210293
0.211045
0.211357
0.211219
0.21062
0.209553
0.208011
0.205989
0.203483
0.200487
0.197
0.19301
0.18852
0.183637
0.178014
0.170322
0.0330084
0.0396778
0.0463762
0.0530972
0.0598329
0.066575
0.073315
0.0800437
0.0867517
0.093429
0.100065
0.106649
0.113169
0.119613
0.125969
0.132222
0.138359
0.144365
0.150225
0.155924
0.161445
0.166771
0.171887
0.176774
0.181414
0.185791
0.189886
0.193682
0.197161
0.200307
0.203103
0.205533
0.207583
0.209238
0.210485
0.211313
0.21171
0.211668
0.211179
0.210235
0.208832
0.206964
0.204628
0.201821
0.198542
0.194779
0.190537
0.185915
0.180584
0.173278
0.0329247
0.0395882
0.0462805
0.0529949
0.0597237
0.0664587
0.0731913
0.0799124
0.0866127
0.0932822
0.0999105
0.106487
0.112999
0.119436
0.125784
0.132031
0.138162
0.144163
0.15002
0.155716
0.161235
0.166562
0.17168
0.176571
0.181219
0.185606
0.189714
0.193528
0.197029
0.200202
0.20303
0.205499
0.207595
0.209303
0.210613
0.211513
0.211993
0.212046
0.211664
0.210843
0.209578
0.207866
0.205705
0.203094
0.200031
0.196507
0.192527
0.188186
0.18317
0.176287
0.0328382
0.0394945
0.0461794
0.0528861
0.059607
0.0663337
0.0730579
0.0797704
0.086462
0.0931227
0.0997423
0.10631
0.112814
0.119242
0.125582
0.131821
0.137945
0.14394
0.149791
0.155483
0.160999
0.166324
0.171442
0.176336
0.180988
0.185383
0.189502
0.19333
0.196849
0.200046
0.202903
0.205406
0.207543
0.209301
0.210669
0.211636
0.212196
0.21234
0.212063
0.211363
0.210235
0.20868
0.206695
0.204283
0.201444
0.19817
0.194467
0.190424
0.185749
0.179326
0.03275
0.0393978
0.0460741
0.052772
0.0594837
0.0662013
0.072916
0.0796189
0.0863008
0.0929518
0.0995616
0.106119
0.112614
0.119033
0.125364
0.131594
0.13771
0.143697
0.14954
0.155226
0.160738
0.166059
0.171175
0.176068
0.180723
0.185122
0.189248
0.193087
0.196621
0.199836
0.202718
0.205251
0.207425
0.209227
0.210647
0.211677
0.212309
0.212539
0.212363
0.211778
0.210785
0.209384
0.207576
0.205366
0.202755
0.19974
0.196327
0.1926
0.18829
0.182367
0.0326612
0.0392993
0.0459658
0.0526537
0.0593554
0.0660626
0.0727669
0.0794594
0.0861307
0.0927711
0.0993702
0.105917
0.112401
0.11881
0.12513
0.131351
0.137457
0.143435
0.14927
0.154948
0.160452
0.165768
0.17088
0.17577
0.180424
0.184824
0.188954
0.192799
0.196344
0.199573
0.202473
0.205031
0.207235
0.209075
0.21054
0.211625
0.212324
0.212633
0.212549
0.212074
0.211209
0.209958
0.208324
0.206314
0.203934
0.201184
0.198072
0.194677
0.190755
0.185374
0.0325734
0.0392005
0.0458561
0.0525329
0.0592234
0.0659194
0.0726124
0.0792935
0.0859533
0.0925822
0.0991699
0.105705
0.112178
0.118575
0.124884
0.131094
0.137189
0.143156
0.148981
0.15465
0.160146
0.165454
0.170558
0.175443
0.180092
0.18449
0.18862
0.192468
0.196018
0.199256
0.202169
0.204744
0.206971
0.208841
0.210344
0.211475
0.212231
0.212609
0.212609
0.212234
0.211488
0.210378
0.208912
0.207099
0.204948
0.202465
0.199662
0.196611
0.193101
0.188301
0.0324882
0.0391031
0.0457465
0.0524113
0.0590896
0.0657735
0.0724543
0.0791232
0.0857708
0.0923875
0.0989628
0.105486
0.111946
0.118331
0.124628
0.130825
0.136909
0.142864
0.148678
0.154335
0.15982
0.165118
0.170213
0.175089
0.179731
0.184123
0.188248
0.192093
0.195643
0.198884
0.201803
0.204389
0.206631
0.208521
0.210052
0.21122
0.212021
0.212456
0.212528
0.212241
0.211602
0.210622
0.209312
0.207686
0.205759
0.203542
0.20105
0.198353
0.195272
0.191092
0.0324074
0.0390088
0.0456391
0.0522907
0.0589561
0.0656269
0.0722948
0.0789508
0.0855855
0.0921892
0.0987517
0.105262
0.111709
0.118081
0.124365
0.130549
0.136619
0.142562
0.148363
0.154007
0.159479
0.164765
0.169847
0.174712
0.179343
0.183724
0.187841
0.191678
0.195222
0.198459
0.201377
0.203964
0.206212
0.208113
0.209661
0.210852
0.211686
0.212165
0.212292
0.212077
0.211529
0.210662
0.209494
0.208041
0.206326
0.204365
0.202182
0.199842
0.197204
0.193676
0.0323327
0.0389197
0.0455357
0.0521734
0.0588248
0.0654819
0.0721361
0.0787785
0.0853998
0.09199
0.0985389
0.105036
0.111469
0.117827
0.124098
0.130268
0.136324
0.142252
0.148039
0.153668
0.159126
0.164397
0.169465
0.174315
0.178931
0.183298
0.187401
0.191225
0.194756
0.197982
0.20089
0.203471
0.205714
0.207614
0.209166
0.210367
0.211218
0.211723
0.211888
0.211725
0.211247
0.210473
0.209423
0.208124
0.206601
0.204882
0.202996
0.201009
0.19882
0.195966
0.0322664
0.0388378
0.0454387
0.0520615
0.0586983
0.065341
0.071981
0.0786093
0.0852165
0.0917928
0.0983278
0.104811
0.11123
0.117574
0.12383
0.129985
0.136026
0.141939
0.14771
0.153324
0.158765
0.164019
0.169069
0.173902
0.178499
0.182848
0.186932
0.190737
0.194249
0.197456
0.200347
0.20291
0.205138
0.207025
0.208566
0.209761
0.210611
0.211123
0.211305
0.211171
0.210738
0.210029
0.209071
0.207896
0.206539
0.205036
0.203427
0.201779
0.200033
0.197859
0.0322108
0.0387661
0.0453512
0.0519586
0.0585804
0.0652084
0.071834
0.078448
0.0850412
0.0916034
0.0981244
0.104593
0.110998
0.117328
0.123569
0.12971
0.135735
0.141633
0.147387
0.152983
0.158407
0.163642
0.168673
0.173485
0.178061
0.182387
0.186448
0.190229
0.193716
0.196898
0.199762
0.202299
0.2045
0.206361
0.207878
0.209051
0.209883
0.210381
0.210556
0.210425
0.210009
0.209335
0.208435
0.207349
0.206121
0.204798
0.203434
0.202095
0.200765
0.19924
0.0321675
0.0387051
0.0452731
0.051864
0.0584697
0.065082
0.0716922
0.0782912
0.0848695
0.0914171
0.0979234
0.104378
0.110768
0.117082
0.123308
0.129433
0.135442
0.141322
0.147058
0.152635
0.158038
0.163252
0.16826
0.173048
0.177598
0.181896
0.185927
0.189676
0.19313
0.196276
0.199102
0.201599
0.20376
0.205578
0.207051
0.20818
0.208969
0.209426
0.209563
0.2094
0.208962
0.208279
0.20739
0.206343
0.205193
0.204001
0.202836
0.201776
0.20084
0.199926
0.0321357
0.0386503
0.0451963
0.051766
0.0583513
0.0649438
0.0715348
0.0781151
0.084675
0.0912044
0.0976927
0.104129
0.110501
0.116796
0.123003
0.129108
0.135096
0.140954
0.146666
0.152218
0.157595
0.162779
0.167756
0.172509
0.177022
0.18128
0.185267
0.188968
0.19237
0.19546
0.198226
0.200658
0.202749
0.204493
0.205887
0.206933
0.207635
0.208003
0.20805
0.207797
0.207272
0.206512
0.205561
0.204477
0.20333
0.202205
0.2012
0.200423
0.199947
0.199704
0.0317139
0.0384774
0.0452864
0.0521373
0.0590215
0.0659286
0.0728483
0.0797694
0.0866804
0.0935688
0.100422
0.107225
0.113963
0.120621
0.127182
0.133629
0.139942
0.146102
0.152089
0.157881
0.163458
0.168796
0.173872
0.17866
0.183138
0.187278
0.191057
0.194449
0.197429
0.19997
0.20205
0.203644
0.204729
0.205286
0.205293
0.204733
0.203589
0.201849
0.199499
0.19653
0.192934
0.188707
0.183846
0.178353
0.172232
0.165479
0.158114
0.150309
0.141572
0.129953
0.0317144
0.0384786
0.0452882
0.0521398
0.0590246
0.0659322
0.0728523
0.0797739
0.0866854
0.0935744
0.100428
0.107231
0.11397
0.120629
0.12719
0.133637
0.13995
0.146111
0.152099
0.157892
0.16347
0.168808
0.173885
0.178674
0.183152
0.187294
0.191074
0.194467
0.197447
0.19999
0.202071
0.203666
0.204753
0.205311
0.20532
0.204762
0.20362
0.201881
0.199533
0.196565
0.192971
0.188746
0.183887
0.178396
0.172277
0.165526
0.158161
0.150358
0.141623
0.130005
0.0317176
0.0384832
0.0452941
0.0521468
0.0590328
0.0659417
0.0728629
0.0797856
0.086698
0.0935879
0.100442
0.107247
0.113986
0.120646
0.127208
0.133656
0.139971
0.146133
0.152122
0.157916
0.163495
0.168835
0.173913
0.178704
0.183184
0.187328
0.19111
0.194505
0.197487
0.200033
0.202116
0.203714
0.204804
0.205365
0.205377
0.204822
0.203684
0.201948
0.199603
0.196639
0.193048
0.188826
0.183971
0.178483
0.172368
0.16562
0.158259
0.150459
0.141726
0.130111
0.0317236
0.0384911
0.045304
0.0521585
0.0590463
0.0659569
0.0728798
0.079804
0.086718
0.0936093
0.100465
0.107271
0.114012
0.120673
0.127237
0.133686
0.140003
0.146166
0.152157
0.157954
0.163535
0.168877
0.173957
0.178751
0.183233
0.187379
0.191164
0.194563
0.197549
0.200098
0.202185
0.203787
0.204881
0.205447
0.205464
0.204914
0.203781
0.20205
0.19971
0.196751
0.193166
0.188949
0.184099
0.178616
0.172506
0.165764
0.158407
0.150611
0.141882
0.130272
0.0317319
0.0385022
0.0453177
0.0521747
0.0590648
0.0659777
0.0729027
0.079829
0.0867449
0.0936382
0.100496
0.107303
0.114047
0.12071
0.127275
0.133727
0.140045
0.146211
0.152204
0.158004
0.163588
0.168933
0.174016
0.178813
0.183299
0.187449
0.191238
0.19464
0.197631
0.200185
0.202277
0.203885
0.204985
0.205557
0.20558
0.205037
0.20391
0.202186
0.199853
0.196901
0.193323
0.189113
0.18427
0.178795
0.172692
0.165956
0.158606
0.150815
0.142092
0.130488
0.0317427
0.0385163
0.0453351
0.0521953
0.0590883
0.0660038
0.0729315
0.0798603
0.0867788
0.0936745
0.100534
0.107344
0.11409
0.120755
0.127324
0.133778
0.140099
0.146267
0.152264
0.158066
0.163653
0.169002
0.174089
0.17889
0.183381
0.187536
0.19133
0.194738
0.197734
0.200294
0.202392
0.204007
0.205115
0.205694
0.205725
0.20519
0.204072
0.202357
0.200033
0.197089
0.19352
0.189319
0.184485
0.179019
0.172925
0.166197
0.158855
0.151072
0.142356
0.13076
0.031756
0.0385334
0.0453561
0.05222
0.0591163
0.0660351
0.0729659
0.0798978
0.0868192
0.0937178
0.10058
0.107393
0.114142
0.12081
0.127381
0.133838
0.140162
0.146334
0.152334
0.158141
0.163732
0.169085
0.174177
0.178982
0.183478
0.187639
0.191439
0.194854
0.197857
0.200424
0.202531
0.204154
0.20527
0.205859
0.2059
0.205374
0.204266
0.202562
0.200248
0.197316
0.193757
0.189567
0.184744
0.179289
0.173205
0.166488
0.159156
0.151382
0.142675
0.13109
0.0317715
0.0385536
0.0453806
0.0522485
0.0591489
0.0660714
0.0730058
0.0799412
0.0868659
0.0937678
0.100634
0.10745
0.114201
0.120873
0.127447
0.133908
0.140236
0.146412
0.152416
0.158227
0.163822
0.169181
0.174277
0.179089
0.183591
0.187759
0.191566
0.194988
0.197999
0.200575
0.202691
0.204324
0.205451
0.20605
0.206102
0.205588
0.204493
0.2028
0.200499
0.19758
0.194034
0.189857
0.185047
0.179605
0.173534
0.166829
0.159509
0.151747
0.14305
0.131477
0.0317891
0.0385764
0.0454083
0.0522808
0.0591856
0.0661123
0.0730508
0.07999
0.0869185
0.093824
0.100694
0.107513
0.114268
0.120943
0.127522
0.133986
0.140318
0.146499
0.152508
0.158323
0.163924
0.169288
0.174391
0.17921
0.183719
0.187894
0.191709
0.19514
0.19816
0.200746
0.202873
0.204517
0.205656
0.206268
0.206333
0.205833
0.204751
0.203073
0.200787
0.197882
0.194351
0.190189
0.185394
0.179967
0.173911
0.167221
0.159915
0.152166
0.143482
0.131923
0.0318085
0.0386014
0.0454388
0.0523165
0.0592261
0.0661575
0.0731004
0.080044
0.0869766
0.0938862
0.10076
0.107583
0.114342
0.121021
0.127604
0.134073
0.14041
0.146595
0.152609
0.15843
0.164037
0.169407
0.174517
0.179343
0.18386
0.188044
0.191868
0.195309
0.19834
0.200937
0.203076
0.204733
0.205885
0.206511
0.206591
0.206106
0.20504
0.203379
0.20111
0.198222
0.194708
0.190564
0.185787
0.180377
0.174338
0.167664
0.160374
0.15264
0.143972
0.13243
0.0318296
0.0386286
0.0454719
0.0523552
0.0592702
0.0662067
0.0731544
0.0801025
0.0870397
0.0939536
0.100831
0.107659
0.114423
0.121106
0.127693
0.134167
0.140509
0.146699
0.152719
0.158546
0.16416
0.169537
0.174654
0.179488
0.184014
0.188208
0.192043
0.195494
0.198537
0.201147
0.203299
0.20497
0.206138
0.20678
0.206876
0.206409
0.205361
0.203718
0.201468
0.1986
0.195106
0.190981
0.186224
0.180834
0.174815
0.16816
0.160888
0.153172
0.144521
0.132998
0.0318523
0.0386579
0.0455075
0.0523968
0.0593174
0.0662593
0.0732121
0.0801652
0.0871071
0.0940257
0.100908
0.107741
0.114509
0.121197
0.127789
0.134268
0.140615
0.146811
0.152837
0.158671
0.164291
0.169676
0.174802
0.179645
0.184181
0.188384
0.192231
0.195694
0.19875
0.201374
0.203541
0.205229
0.206413
0.207073
0.207188
0.20674
0.205713
0.204091
0.201862
0.199015
0.195543
0.191441
0.186706
0.181339
0.175342
0.168709
0.161458
0.153762
0.14513
0.133631
0.031876
0.0386887
0.045545
0.0524406
0.0593673
0.0663149
0.0732732
0.0802315
0.0871785
0.094102
0.100989
0.107827
0.1146
0.121293
0.12789
0.134374
0.140727
0.14693
0.152962
0.158803
0.164431
0.169824
0.174959
0.179812
0.184358
0.188573
0.192432
0.195909
0.198979
0.201618
0.203802
0.205507
0.20671
0.207389
0.207525
0.207099
0.206094
0.204495
0.20229
0.199468
0.196021
0.191944
0.187234
0.181892
0.17592
0.169312
0.162085
0.154412
0.145802
0.134329
0.0319006
0.0387207
0.0455841
0.0524864
0.0594194
0.066373
0.073337
0.0803007
0.087253
0.0941817
0.101074
0.107916
0.114695
0.121393
0.127996
0.134486
0.140845
0.147054
0.153093
0.158941
0.164578
0.16998
0.175124
0.179987
0.184545
0.188773
0.192645
0.196136
0.199222
0.201878
0.20408
0.205804
0.207028
0.207729
0.207887
0.207485
0.206505
0.204932
0.202753
0.199958
0.196539
0.19249
0.187808
0.182494
0.17655
0.16997
0.16277
0.155122
0.146539
0.135094
0.0319257
0.0387536
0.0456244