/*--------------------------------*- C++ -*----------------------------------*\
| =========                 |                                                 |
| \\      /  F ield         | OpenFOAM: The Open Source CFD Toolbox           |
|  \\    /   O peration     | Version:                                        |
|   \\  /    A nd           | Website:  www.openfoam.com                      |
|    \\/     M anipulation  |                                                 |
\*---------------------------------------------------------------------------*/
FoamFile
{
    version     2.0;
    format      ascii;
    class       volScalarField;
    location    "0.05";
    object      p;
}
// * * * * * * * * * * * * * * * * * * * * * * * * * * * * * * * * * * * * * //

dimensions      [0 2 -2 0 0 0 0];


internalField   nonuniform List<scalar> 
125000
(
0.0521745
0.0547128
0.0572436
0.0597607
0.062258
0.0647293
0.0671684
0.0695693
0.071926
0.0742328
0.076484
0.0786741
0.0807978
0.0828499
0.0848258
0.0867207
0.0885306
0.0902513
0.0918793
0.0934114
0.0948447
0.0961769
0.0974059
0.0985302
0.0995489
0.100461
0.101268
0.101969
0.102566
0.10306
0.103455
0.103754
0.103961
0.104081
0.104119
0.104082
0.103978
0.103814
0.1036
0.103346
0.103063
0.102764
0.10246
0.102165
0.101894
0.101661
0.101478
0.101355
0.1013
0.101304
0.0521611
0.0546966
0.0572248
0.0597394
0.0622341
0.0647029
0.0671397
0.0695383
0.0718929
0.0741977
0.076447
0.0786353
0.0807574
0.0828082
0.0847829
0.0866768
0.0884858
0.090206
0.0918336
0.0933656
0.094799
0.0961315
0.097361
0.0984862
0.0995059
0.10042
0.101228
0.10193
0.102529
0.103026
0.103423
0.103724
0.103933
0.104055
0.104096
0.104062
0.10396
0.103798
0.103586
0.103333
0.103051
0.102752
0.102448
0.102152
0.101879
0.101644
0.101459
0.101337
0.101287
0.101306
0.0521324
0.054677
0.0572142
0.0597379
0.0622417
0.0647196
0.0671653
0.0695729
0.0719364
0.0742499
0.0765078
0.0787046
0.080835
0.0828939
0.0848764
0.086778
0.0885942
0.0903213
0.0919556
0.0934938
0.094933
0.0962708
0.0975053
0.0986347
0.0996581
0.100575
0.101385
0.10209
0.102689
0.103186
0.103582
0.103882
0.104089
0.104207
0.104243
0.104202
0.104092
0.103922
0.1037
0.103436
0.103141
0.102828
0.102509
0.102197
0.101909
0.101659
0.101462
0.101333
0.101283
0.101312
0.0520951
0.0546581
0.0572137
0.0597557
0.0622778
0.0647738
0.0672375
0.0696629
0.0720438
0.0743745
0.0766493
0.0788625
0.0810088
0.0830831
0.0850804
0.0869961
0.0888258
0.0905656
0.0922118
0.0937609
0.0952102
0.096557
0.0977994
0.0989356
0.0999645
0.100886
0.101699
0.102404
0.103004
0.103499
0.103892
0.104187
0.104386
0.104496
0.104521
0.104468
0.104343
0.104156
0.103915
0.103631
0.103313
0.102976
0.102631
0.102294
0.10198
0.101706
0.101489
0.101345
0.101288
0.101319
0.0520558
0.0546442
0.0572253
0.0597925
0.0623398
0.0648607
0.0673491
0.0697987
0.0722036
0.0745577
0.0768553
0.0790908
0.0812586
0.0833536
0.0853707
0.0873053
0.0891529
0.0909095
0.0925711
0.0941345
0.0955967
0.0969549
0.0982071
0.0993515
0.100387
0.101313
0.102129
0.102835
0.103433
0.103925
0.104312
0.104599
0.104788
0.104885
0.104894
0.104823
0.104679
0.104469
0.104202
0.10389
0.103543
0.103174
0.102797
0.102427
0.10208
0.101775
0.101531
0.101365
0.101296
0.101325
0.0520193
0.0546387
0.0572507
0.0598487
0.0624266
0.0649778
0.0674961
0.0699752
0.072409
0.0747914
0.0771165
0.0793786
0.0815722
0.083692
0.0857327
0.0876898
0.0895585
0.0913347
0.0930145
0.0945944
0.0960713
0.0974425
0.0987057
0.0998591
0.100901
0.101832
0.10265
0.103356
0.103952
0.104438
0.104817
0.105093
0.105269
0.105349
0.105339
0.105246
0.105076
0.104838
0.104541
0.104196
0.103814
0.103407
0.102992
0.102582
0.102197
0.101857
0.101581
0.10139
0.101305
0.10133
0.0519892
0.0546438
0.0572908
0.0599238
0.0625363
0.0651218
0.067674
0.0701864
0.0726528
0.075067
0.0774231
0.0797153
0.0819377
0.0840851
0.0861523
0.0881342
0.0900262
0.091824
0.0935237
0.0951216
0.0966145
0.0979995
0.0992743
0.100437
0.101486
0.10242
0.10324
0.103945
0.104536
0.105015
0.105385
0.105647
0.105806
0.105867
0.105835
0.105715
0.105517
0.105247
0.104915
0.104532
0.10411
0.103662
0.103203
0.102751
0.102324
0.101943
0.101632
0.101414
0.101311
0.101331
0.0519678
0.0546606
0.0573458
0.0600167
0.0626668
0.0652896
0.0678784
0.0704268
0.0729285
0.0753771
0.0777666
0.080091
0.0823445
0.0845215
0.0866167
0.0886251
0.0905419
0.0923626
0.0940832
0.0956998
0.0972091
0.0986083
0.0998947
0.101066
0.102122
0.103059
0.103879
0.104582
0.105168
0.105638
0.105995
0.106242
0.106382
0.106421
0.106363
0.106214
0.105983
0.105678
0.105308
0.104884
0.104418
0.103925
0.103421
0.102923
0.102451
0.102029
0.101681
0.101433
0.101312
0.101327
0.051957
0.0546901
0.0574155
0.0601264
0.0628162
0.0654781
0.0681055
0.0706917
0.0732304
0.0757151
0.0781395
0.0804976
0.0827834
0.0849912
0.0871157
0.0891515
0.0910938
0.0929379
0.0946798
0.0963154
0.0978413
0.0992544
0.100552
0.101732
0.102793
0.103733
0.104553
0.105252
0.10583
0.10629
0.106633
0.106862
0.106982
0.106996
0.106909
0.10673
0.106464
0.10612
0.105709
0.105242
0.104731
0.104191
0.103638
0.103092
0.102574
0.102109
0.101724
0.101446
0.101307
0.101319
0.0519577
0.0547325
0.0574994
0.0602516
0.0629823
0.0656846
0.0683517
0.0709769
0.0735537
0.0760753
0.0785356
0.0809281
0.083247
0.0854862
0.0876403
0.0897039
0.0916719
0.0935397
0.0953028
0.0969572
0.0984994
0.0999261
0.101235
0.102422
0.103488
0.10443
0.105248
0.105941
0.106511
0.106958
0.107286
0.107496
0.107593
0.10758
0.107464
0.107251
0.106948
0.106564
0.10611
0.105598
0.105039
0.10445
0.103849
0.103254
0.102689
0.102181
0.101758
0.101452
0.101296
0.101305
0.0519707
0.0547879
0.057597
0.0603911
0.0631633
0.0659066
0.068614
0.0712787
0.0738939
0.076453
0.0789494
0.0813767
0.0837287
0.0859995
0.0881833
0.0902745
0.0922681
0.0941592
0.0959433
0.0976161
0.099174
0.100614
0.101932
0.103127
0.104196
0.105138
0.105953
0.10664
0.1072
0.107634
0.107944
0.108134
0.108206
0.108165
0.108017
0.107769
0.107428
0.107003
0.106505
0.105945
0.105339
0.1047
0.104049
0.103405
0.102794
0.102243
0.101784
0.10145
0.101278
0.101285
0.0519961
0.0548559
0.0577074
0.0605437
0.0633575
0.0661419
0.0688896
0.0715939
0.0742476
0.076844
0.0793764
0.0818383
0.0842233
0.0865253
0.0887384
0.0908569
0.0928756
0.0947895
0.0965938
0.0982843
0.0998571
0.101309
0.102636
0.103837
0.104909
0.10585
0.106661
0.10734
0.107889
0.108308
0.1086
0.108767
0.108814
0.108744
0.108563
0.108278
0.107898
0.107431
0.106887
0.106281
0.105625
0.104937
0.104236
0.103544
0.102886
0.102294
0.1018
0.101439
0.101253
0.101259
0.0520342
0.0549363
0.0578299
0.060708
0.0635632
0.0663883
0.0691761
0.0719195
0.0746113
0.0772446
0.0798126
0.0823086
0.084726
0.0870586
0.0893004
0.0914456
0.0934886
0.0954245
0.0972482
0.0989555
0.100542
0.102005
0.10334
0.104546
0.105619
0.106559
0.107365
0.108035
0.108572
0.108975
0.109247
0.109391
0.109411
0.10931
0.109096
0.108774
0.108354
0.107843
0.107255
0.106601
0.105897
0.105159
0.104409
0.103668
0.102966
0.102333
0.101806
0.101421
0.101221
0.101228
0.0520845
0.0550283
0.0579636
0.0608829
0.0637789
0.0666441
0.0694713
0.0722531
0.0749824
0.0776519
0.0802547
0.0827839
0.085233
0.0875954
0.089865
0.0920359
0.0941024
0.0960593
0.0979015
0.0996246
0.101224
0.102697
0.10404
0.105249
0.106323
0.10726
0.108059
0.10872
0.109243
0.109629
0.109881
0.110001
0.109992
0.109861
0.109612
0.109253
0.108792
0.108238
0.107604
0.106903
0.10615
0.105364
0.104566
0.103779
0.103033
0.102362
0.101802
0.101394
0.101183
0.10119
0.0521467
0.0551315
0.0581074
0.0610671
0.0640029
0.0669075
0.0697732
0.0725925
0.0753582
0.078063
0.0806996
0.0832612
0.0857409
0.0881321
0.0904285
0.092624
0.0947129
0.0966898
0.0985495
0.100287
0.101899
0.103381
0.104729
0.105941
0.107014
0.107948
0.108739
0.109389
0.109898
0.110267
0.110497
0.110592
0.110555
0.110392
0.110109
0.109712
0.10921
0.108613
0.107934
0.107187
0.106386
0.105552
0.104707
0.103875
0.103088
0.102379
0.101789
0.10136
0.101139
0.101148
0.0522202
0.0552448
0.0582604
0.0612594
0.0642341
0.0671768
0.0700798
0.0729357
0.0757367
0.0784756
0.0811449
0.0837377
0.0862468
0.0886657
0.0909878
0.0932068
0.0953169
0.0973126
0.0991885
0.10094
0.102562
0.104052
0.105405
0.106619
0.107691
0.108619
0.109402
0.110041
0.110534
0.110884
0.111093
0.111162
0.111097
0.110902
0.110584
0.110149
0.109607
0.108967
0.108244
0.10745
0.106603
0.105723
0.104832
0.103957
0.103129
0.102386
0.101768
0.10132
0.101089
0.1011
0.0523043
0.0553676
0.0584216
0.0614586
0.0644709
0.0674505
0.0703897
0.0732807
0.0761158
0.0788875
0.0815884
0.084211
0.0867484
0.0891937
0.0915401
0.0937815
0.0959116
0.0979249
0.0998159
0.10158
0.103212
0.104708
0.106065
0.107279
0.108349
0.109271
0.110046
0.110672
0.11115
0.11148
0.111666
0.11171
0.111616
0.111389
0.111036
0.110563
0.109981
0.1093
0.108533
0.107694
0.106802
0.105877
0.104942
0.104025
0.103159
0.102383
0.101739
0.101273
0.101035
0.101048
0.0523983
0.0554989
0.05859
0.0616637
0.0647121
0.0677273
0.0707012
0.073626
0.0764939
0.0792971
0.082028
0.0846793
0.0872435
0.0897138
0.0920834
0.0943457
0.0964946
0.0985243
0.100429
0.102204
0.103845
0.105347
0.106706
0.10792
0.108986
0.109902
0.110667
0.11128
0.111742
0.112053
0.112216
0.112234
0.112111
0.111852
0.111464
0.110955
0.110333
0.109611
0.1088
0.107918
0.106982
0.106013
0.105036
0.10408
0.103178
0.102371
0.101703
0.10122
0.100976
0.100992
0.0525013
0.0556378
0.0587644
0.0618734
0.0649565
0.0680058
0.071013
0.0739702
0.0768694
0.0797026
0.0824622
0.0851406
0.0877304
0.0902244
0.0926157
0.0948977
0.0970641
0.0991089
0.101026
0.102812
0.10446
0.105966
0.107328
0.10854
0.109602
0.110511
0.111265
0.111864
0.112309
0.112601
0.112741
0.112733
0.112581
0.112291
0.111868
0.111322
0.110662
0.109899
0.109048
0.108123
0.107145
0.106134
0.105117
0.104123
0.103187
0.102351
0.10166
0.101163
0.100913
0.100932
0.0526125
0.0557833
0.058944
0.0620866
0.065203
0.0682848
0.0713238
0.0743119
0.0772408
0.0801026
0.0828894
0.0855935
0.0882074
0.0907237
0.0931354
0.0954358
0.0976184
0.0996771
0.101606
0.1034
0.105055
0.106565
0.107927
0.109138
0.110195
0.111095
0.111839
0.112424
0.112852
0.113123
0.11324
0.113207
0.113026
0.112705
0.112249
0.111667
0.110969
0.110167
0.109275
0.10831
0.107291
0.10624
0.105184
0.104154
0.103187
0.102323
0.101612
0.101101
0.100847
0.100869
0.0527309
0.0559344
0.0591276
0.0623024
0.0654504
0.0685632
0.0716324
0.0746498
0.077607
0.0804958
0.0833084
0.0860368
0.0886733
0.0912105
0.0936413
0.0959587
0.0981563
0.100228
0.102167
0.103969
0.105629
0.107142
0.108504
0.109712
0.110763
0.111655
0.112387
0.112958
0.113369
0.11362
0.113714
0.113655
0.113446
0.113094
0.112605
0.111988
0.111253
0.110414
0.109483
0.108478
0.10742
0.106331
0.105239
0.104175
0.103177
0.102289
0.101558
0.101036
0.100777
0.100803
0.0528556
0.0560902
0.0593143
0.0625196
0.0656976
0.0688398
0.0719377
0.0749829
0.0779668
0.0808812
0.083718
0.0864692
0.089127
0.0916837
0.0941322
0.0964655
0.0986767
0.10076
0.102708
0.104517
0.106182
0.107696
0.109058
0.110262
0.111307
0.11219
0.11291
0.113467
0.11386
0.114091
0.114163
0.114078
0.113841
0.113459
0.112938
0.112287
0.111517
0.11064
0.109672
0.10863
0.107534
0.106409
0.105282
0.104187
0.103161
0.102249
0.101501
0.100968
0.100706
0.100735
0.0529856
0.0562497
0.059503
0.0627373
0.0659437
0.0691138
0.0722388
0.0753101
0.0783192
0.0812577
0.0841173
0.0868898
0.0895675
0.0921424
0.0946073
0.0969551
0.0991789
0.101272
0.103229
0.105044
0.106712
0.108228
0.109588
0.110788
0.111826
0.1127
0.113408
0.113949
0.114325
0.114536
0.114585
0.114476
0.114212
0.1138
0.113248
0.112564
0.11176
0.110848
0.109844
0.108765
0.107634
0.106475
0.105315
0.10419
0.103137
0.102204
0.101439
0.100897
0.100632
0.100665
0.0531199
0.0564119
0.059693
0.0629545
0.0661878
0.0693842
0.0725347
0.0756306
0.0786634
0.0816245
0.0845054
0.0872979
0.089994
0.0925858
0.0950659
0.097427
0.0996622
0.101765
0.103729
0.105549
0.107219
0.108735
0.110093
0.111289
0.11232
0.113184
0.11388
0.114407
0.114765
0.114956
0.114983
0.114849
0.114559
0.114119
0.113536
0.11282
0.111983
0.111037
0.109998
0.108886
0.107721
0.106529
0.105338
0.104185
0.103108
0.102154
0.101375
0.100824
0.100557
0.100594
0.0532576
0.056576
0.0598831
0.0631704
0.066429
0.06965
0.0728245
0.0759436
0.0789986
0.0819807
0.0848816
0.0876927
0.0904059
0.0930133
0.0955074
0.0978806
0.100126
0.102237
0.104208
0.106032
0.107704
0.10922
0.110575
0.111765
0.112789
0.113643
0.114326
0.114838
0.11518
0.115352
0.115357
0.115199
0.114883
0.114415
0.113803
0.113057
0.112187
0.111209
0.110138
0.108992
0.107795
0.106572
0.105353
0.104173
0.103073
0.102101
0.101309
0.10075
0.100482
0.100522
0.0533979
0.0567409
0.0600726
0.0633841
0.0666664
0.0699106
0.0731075
0.0762483
0.079324
0.0823259
0.0852452
0.0880735
0.0908026
0.0934245
0.0959312
0.0983155
0.10057
0.102689
0.104665
0.106492
0.108165
0.10968
0.111032
0.112217
0.113233
0.114077
0.114748
0.115245
0.11557
0.115722
0.115706
0.115525
0.115184
0.11469
0.114049
0.113274
0.112374
0.111365
0.110262
0.109086
0.107858
0.106606
0.10536
0.104155
0.103034
0.102045
0.101241
0.100675
0.100406
0.100449
0.0535396
0.0569059
0.0602606
0.0635947
0.0668993
0.0701651
0.0733831
0.0765441
0.0796391
0.0826592
0.0855958
0.0884401
0.0911838
0.0938188
0.0963372
0.0987316
0.100995
0.103119
0.1051
0.10693
0.108604
0.110117
0.111465
0.112645
0.113653
0.114486
0.115145
0.115628
0.115936
0.11607
0.116033
0.11583
0.115464
0.114944
0.114277
0.113473
0.112544
0.111505
0.110373
0.109167
0.107911
0.106632
0.10536
0.104132
0.102992
0.101987
0.101171
0.1006
0.100329
0.100376
0.0536821
0.0570701
0.0604462
0.0638015
0.0671269
0.0704129
0.0736504
0.0768303
0.0799432
0.0829804
0.0859328
0.0887919
0.091549
0.0941961
0.0967251
0.0991285
0.101399
0.103529
0.105514
0.107345
0.10902
0.110531
0.111875
0.113049
0.114048
0.114872
0.115518
0.115987
0.116278
0.116394
0.116338
0.116113
0.115724
0.115179
0.114486
0.113655
0.112699
0.111632
0.110471
0.109238
0.107955
0.10665
0.105354
0.104105
0.102946
0.101927
0.101101
0.100524
0.100254
0.100304
0.0538243
0.0572326
0.0606288
0.0640039
0.0673485
0.0706534
0.0739091
0.0771064
0.080236
0.0832889
0.086256
0.0891286
0.0918981
0.0945562
0.0970948
0.0995062
0.101783
0.103919
0.105906
0.107739
0.109413
0.110922
0.112262
0.113429
0.11442
0.115234
0.115868
0.116323
0.116599
0.116697
0.116621
0.116375
0.115964
0.115395
0.114677
0.113821
0.112838
0.111745
0.110558
0.109299
0.10799
0.106661
0.105343
0.104074
0.102898
0.101866
0.101031
0.10045
0.100179
0.100232
0.0539656
0.0573927
0.0608076
0.064201
0.0675636
0.0708859
0.0741585
0.0773719
0.080517
0.0835843
0.0865649
0.08945
0.0922307
0.0948988
0.0974461
0.0998648
0.102147
0.104287
0.106277
0.108111
0.109784
0.11129
0.112625
0.113786
0.11477
0.115573
0.116196
0.116637
0.116897
0.116979
0.116884
0.116618
0.116185
0.115594
0.114853
0.113972
0.112965
0.111846
0.110634
0.10935
0.108018
0.106666
0.105327
0.10404
0.102849
0.101804
0.100961
0.100376
0.100105
0.100161
0.054105
0.0575497
0.0609818
0.0643922
0.0677715
0.07111
0.0743981
0.0776266
0.0807857
0.0838664
0.0868595
0.0897559
0.0925469
0.095224
0.0977791
0.100204
0.102492
0.104635
0.106627
0.108461
0.110133
0.111636
0.112967
0.114121
0.115096
0.11589
0.116501
0.116929
0.117175
0.11724
0.117127
0.116842
0.116389
0.115776
0.115013
0.114109
0.113078
0.111936
0.110701
0.109393
0.108039
0.106666
0.105308
0.104004
0.102799
0.101743
0.100892
0.100303
0.100032
0.100092
0.0542419
0.0577028
0.0611509
0.0645771
0.0679717
0.0713251
0.0746277
0.0778698
0.0810421
0.084135
0.0871394
0.0900461
0.0928465
0.0955318
0.0980938
0.100525
0.102817
0.104963
0.106956
0.10879
0.11046
0.11196
0.113286
0.114434
0.115402
0.116186
0.116786
0.117201
0.117432
0.117482
0.117352
0.117049
0.116576
0.115943
0.115158
0.114233
0.11318
0.112015
0.110758
0.109429
0.108054
0.106662
0.105286
0.103966
0.102748
0.101682
0.100825
0.100232
0.0999619
0.100024
0.0543755
0.0578513
0.0613142
0.0647549
0.0681637
0.0715308
0.0748466
0.0781014
0.0812856
0.0843897
0.0874045
0.0903207
0.0931294
0.0958221
0.0983903
0.100826
0.103122
0.10527
0.107265
0.109099
0.110767
0.112263
0.113585
0.114726
0.115686
0.116461
0.11705
0.117453
0.11767
0.117705
0.117559
0.117238
0.116748
0.116095
0.115291
0.114345
0.113271
0.112086
0.110808
0.109459
0.108064
0.106654
0.105262
0.103927
0.102697
0.101621
0.100758
0.100163
0.0998935
0.0999586
0.0545051
0.0579947
0.0614712
0.0649252
0.068347
0.0717268
0.0750547
0.0783211
0.0815162
0.0846305
0.0876547
0.0905795
0.0933958
0.0960951
0.0986688
0.101109
0.103408
0.105558
0.107553
0.109386
0.111052
0.112546
0.113862
0.114998
0.11595
0.116716
0.117294
0.117686
0.11789
0.117911
0.11775
0.117412
0.116904
0.116234
0.11541
0.114445
0.113352
0.112147
0.11085
0.109482
0.10807
0.106643
0.105235
0.103888
0.102646
0.101563
0.100694
0.100097
0.0998274
0.0998951
0.0546301
0.0581324
0.0616214
0.0650876
0.0685213
0.0719126
0.0752516
0.0785286
0.0817336
0.0848573
0.08789
0.0908224
0.0936456
0.0963508
0.0989294
0.101373
0.103675
0.105827
0.107822
0.109654
0.111318
0.112808
0.11412
0.115249
0.116194
0.116951
0.11752
0.1179
0.118093
0.118099
0.117924
0.117571
0.117047
0.11636
0.115518
0.114535
0.113424
0.112201
0.110886
0.109501
0.108072
0.10663
0.105208
0.103848
0.102596
0.101505
0.100632
0.100033
0.099764
0.0998341
0.0547499
0.0582638
0.0617641
0.0652415
0.0686861
0.072088
0.0754371
0.0787236
0.0819378
0.0850698
0.0881102
0.0910496
0.093879
0.0965894
0.0991723
0.10162
0.103923
0.106076
0.108072
0.109903
0.111565
0.113051
0.114358
0.115482
0.116419
0.117168
0.117727
0.118097
0.118278
0.118272
0.118083
0.117716
0.117177
0.116473
0.115616
0.114616
0.113488
0.112248
0.110916
0.109515
0.108071
0.106615
0.10518
0.103809
0.102548
0.10145
0.100572
0.0999714
0.0997035
0.0997759
0.054864
0.0583884
0.0618991
0.0653867
0.0688412
0.0722526
0.0756109
0.0789061
0.0821284
0.0852681
0.0883154
0.0912611
0.0940959
0.0968109
0.0993976
0.101848
0.104153
0.106307
0.108302
0.110132
0.111792
0.113275
0.114577
0.115695
0.116626
0.117367
0.117918
0.118277
0.118447
0.11843
0.118228
0.117847
0.117294
0.116575
0.115703
0.114687
0.113544
0.112288
0.110942
0.109526
0.108068
0.106598
0.105152
0.103771
0.102501
0.101397
0.100516
0.0999132
0.099646
0.0997205
0.0549719
0.0585057
0.0620259
0.0655227
0.0689861
0.0724062
0.0757728
0.0790759
0.0823056
0.085452
0.0885056
0.0914569
0.0942965
0.0970156
0.0996056
0.102058
0.104365
0.10652
0.108515
0.110343
0.112
0.11348
0.114778
0.115891
0.116815
0.117549
0.118091
0.118442
0.118601
0.118573
0.118359
0.117966
0.117399
0.116667
0.11578
0.114751
0.113593
0.112323
0.110962
0.109533
0.108062
0.10658
0.105124
0.103733
0.102457
0.101347
0.100462
0.0998583
0.0995918
0.0996682
0.055073
0.0586155
0.0621441
0.0656491
0.0691207
0.0725485
0.0759226
0.0792327
0.0824691
0.0856217
0.0886808
0.091637
0.0944809
0.0972036
0.0997964
0.102251
0.104559
0.106714
0.108709
0.110536
0.11219
0.113667
0.114961
0.116069
0.116987
0.117714
0.118248
0.11859
0.118741
0.118702
0.118477
0.118072
0.117494
0.116749
0.115849
0.114807
0.113636
0.112353
0.110979
0.109538
0.108055
0.106563
0.105096
0.103698
0.102414
0.101299
0.100412
0.0998068
0.099541
0.0996192
0.0551669
0.0587171
0.0622534
0.0657659
0.0692446
0.0726794
0.0760601
0.0793766
0.0826189
0.0857769
0.088841
0.0918015
0.0946492
0.0973751
0.0999703
0.102427
0.104736
0.106891
0.108885
0.110711
0.112363
0.113837
0.115127
0.11623
0.117142
0.117863
0.11839
0.118724
0.118866
0.118818
0.118583
0.118168
0.117578
0.116822
0.11591
0.114856
0.113673
0.112378
0.110993
0.10954
0.108047
0.106545
0.10507
0.103664
0.102374
0.101255
0.100364
0.0997588
0.0994937
0.0995736
0.0552533
0.0588104
0.0623534
0.0658725
0.0693577
0.0727987
0.0761854
0.0795075
0.0827549
0.0859177
0.0889862
0.0919506
0.0948016
0.0975301
0.100127
0.102585
0.104895
0.10705
0.109044
0.110868
0.112518
0.113989
0.115275
0.116374
0.117282
0.117996
0.118517
0.118844
0.118977
0.118921
0.118677
0.118252
0.117652
0.116886
0.115964
0.114898
0.113704
0.112399
0.111004
0.109541
0.108038
0.106527
0.105045
0.103632
0.102337
0.101214
0.100321
0.0997146
0.0994502
0.0995316
0.0553318
0.0588949
0.0624439
0.0659689
0.0694598
0.0729063
0.0762981
0.0796251
0.0828772
0.0860442
0.0891164
0.0920842
0.0949381
0.0976689
0.100268
0.102727
0.105038
0.107193
0.109185
0.111008
0.112656
0.114124
0.115407
0.116502
0.117405
0.118115
0.118629
0.11895
0.119076
0.119012
0.11876
0.118326
0.117717
0.116942
0.11601
0.114935
0.113731
0.112417
0.111012
0.10954
0.108029
0.10651
0.105021
0.103602
0.102302
0.101176
0.100281
0.0996743
0.0994104
0.0994932
0.0554021
0.0589706
0.0625248
0.0660548
0.0695506
0.0730019
0.0763983
0.0797296
0.0829856
0.0861563
0.0892318
0.0922025
0.0950588
0.0977917
0.100392
0.102852
0.105163
0.107318
0.10931
0.111132
0.112778
0.114244
0.115524
0.116615
0.117514
0.118218
0.118728
0.119042
0.119162
0.119091
0.118832
0.118391
0.117774
0.11699
0.11605
0.114966
0.113754
0.112431
0.111018
0.109538
0.10802
0.106495
0.104999
0.103575
0.102271
0.101142
0.100245
0.0996379
0.0993746
0.0994585
0.0554639
0.059037
0.0625956
0.0661301
0.0696302
0.0730855
0.0764858
0.0798208
0.0830802
0.086254
0.0893324
0.0923055
0.0951639
0.0978984
0.1005
0.102961
0.105272
0.107427
0.109418
0.111239
0.112883
0.114347
0.115624
0.116712
0.117607
0.118308
0.118813
0.119122
0.119237
0.119159
0.118894
0.118446
0.117822
0.117031
0.116083
0.114992
0.113773
0.112443
0.111022
0.109536
0.108011
0.10648
0.104979
0.103551
0.102243
0.101111
0.100213
0.0996055
0.0993428
0.0994278
0.055517
0.059094
0.0626564
0.0661946
0.0696983
0.0731571
0.0765606
0.0798987
0.083161
0.0863375
0.0894182
0.0923933
0.0952535
0.0979894
0.100592
0.103054
0.105365
0.10752
0.10951
0.11133
0.112973
0.114434
0.115709
0.116794
0.117686
0.118383
0.118884
0.119189
0.119299
0.119217
0.118946
0.118492
0.117862
0.117065
0.116111
0.115014
0.113788
0.112452
0.111025
0.109533
0.108003
0.106466
0.104961
0.103529
0.102219
0.101085
0.100186
0.0995774
0.0993151
0.099401
0.0555612
0.0591414
0.062707
0.0662482
0.0697548
0.0732164
0.0766227
0.0799633
0.083228
0.0864066
0.0894892
0.0924661
0.0953276
0.0980647
0.100668
0.10313
0.105442
0.107596
0.109586
0.111405
0.113047
0.114506
0.115779
0.116862
0.117751
0.118446
0.118943
0.119244
0.11935
0.119264
0.118988
0.11853
0.117895
0.117093
0.116134
0.115031
0.1138
0.112458
0.111027
0.10953
0.107995
0.106455
0.104946
0.10351
0.102198
0.101062
0.100162
0.0995535
0.0992916
0.0993782
0.0555964
0.059179
0.0627471
0.0662907
0.0697997
0.0732636
0.076672
0.0800146
0.0832811
0.0864614
0.0895456
0.0925238
0.0953864
0.0981244
0.100729
0.103191
0.105503
0.107657
0.109646
0.111464
0.113105
0.114563
0.115835
0.116915
0.117803
0.118495
0.11899
0.119288
0.119391
0.119301
0.119022
0.118559
0.11792
0.117114
0.116151
0.115044
0.113809
0.112463
0.111028
0.109527
0.107988
0.106445
0.104933
0.103495
0.10218
0.101043
0.100143
0.0995339
0.0992724
0.0993596
0.0556225
0.0592069
0.0627768
0.0663222
0.0698329
0.0732984
0.0767084
0.0800525
0.0833205
0.0865021
0.0895873
0.0925665
0.09543
0.0981686
0.100773
0.103236
0.105548
0.107702
0.10969
0.111508
0.113148
0.114605
0.115875
0.116955
0.117841
0.118531
0.119024
0.11932
0.11942
0.119328
0.119046
0.118581
0.117939
0.117129
0.116163
0.115053
0.113815
0.112466
0.111028
0.109524
0.107983
0.106437
0.104922
0.103483
0.102167
0.101029
0.100127
0.0995187
0.0992574
0.0993449
0.0556392
0.0592249
0.062796
0.0663426
0.0698544
0.0733211
0.0767321
0.0800772
0.083346
0.0865285
0.0896145
0.0925943
0.0954584
0.0981975
0.100803
0.103265
0.105577
0.107731
0.109719
0.111536
0.113175
0.114632
0.115902
0.11698
0.117865
0.118554
0.119046
0.11934
0.119439
0.119345
0.119061
0.118594
0.11795
0.117139
0.11617
0.115058
0.113818
0.112467
0.111027
0.109521
0.107978
0.10643
0.104915
0.103474
0.102157
0.101019
0.100117
0.0995079
0.0992466
0.0993345
0.0556467
0.059233
0.0628047
0.0663519
0.0698642
0.0733314
0.076743
0.0800885
0.0833579
0.0865407
0.0896271
0.0926073
0.0954717
0.0982109
0.100816
0.103279
0.105591
0.107744
0.109733
0.111549
0.113188
0.114645
0.115914
0.116992
0.117876
0.118565
0.119056
0.11935
0.119448
0.119353
0.119068
0.1186
0.117955
0.117143
0.116173
0.11506
0.113818
0.112467
0.111026
0.109519
0.107975
0.106426
0.10491
0.103469
0.102151
0.101012
0.10011
0.0995015
0.0992403
0.0993283
0.0521864
0.0547221
0.0572503
0.0597649
0.0622597
0.0647283
0.0671649
0.0695632
0.0719173
0.0742216
0.0764702
0.0786578
0.0807789
0.0828286
0.084802
0.0866946
0.0885021
0.0902205
0.0918463
0.0933763
0.0948077
0.096138
0.0973653
0.0984881
0.0995053
0.100417
0.101222
0.101922
0.102518
0.103013
0.103408
0.103707
0.103915
0.104035
0.104075
0.10404
0.103938
0.103777
0.103567
0.103317
0.103038
0.102744
0.102445
0.102157
0.101891
0.101662
0.101482
0.10136
0.101302
0.101306
0.052171
0.0546963
0.0572143
0.0597186
0.0622032
0.064662
0.0670887
0.0694776
0.0718225
0.0741178
0.0763579
0.0785374
0.0806508
0.0826933
0.08466
0.0865464
0.0883484
0.0900619
0.0916835
0.09321
0.0946385
0.0959668
0.0971928
0.0983152
0.0993328
0.100245
0.101053
0.101756
0.102356
0.102855
0.103256
0.103562
0.103777
0.103906
0.103955
0.103929
0.103838
0.103687
0.103488
0.10325
0.102983
0.102699
0.102411
0.102132
0.101874
0.101652
0.101477
0.101358
0.101304
0.101323
0.052147
0.0546743
0.0571942
0.0597006
0.0621873
0.0646481
0.067077
0.069468
0.0718152
0.0741128
0.0763552
0.078537
0.0806528
0.0826978
0.084667
0.0865559
0.0883604
0.0900765
0.0917007
0.0932298
0.0946609
0.0959918
0.0972204
0.0983453
0.0993655
0.10028
0.10109
0.101796
0.102398
0.102899
0.103301
0.103609
0.103825
0.103954
0.104003
0.103978
0.103886
0.103734
0.103533
0.103292
0.103022
0.102734
0.102442
0.102157
0.101894
0.101665
0.101485
0.101362
0.101309
0.101339
0.0521178
0.0546556
0.0571861
0.059703
0.0622002
0.0646715
0.0671108
0.0695121
0.0718695
0.0741771
0.0764293
0.0786207
0.080746
0.0828
0.084778
0.0866754
0.088488
0.0902119
0.0918433
0.0933792
0.0948166
0.0961533
0.097387
0.0985165
0.0995405
0.100459
0.101271
0.101978
0.102581
0.103082
0.103483
0.103788
0.104001
0.104126
0.10417
0.104138
0.104037
0.103877
0.103665
0.103412
0.103129
0.102827
0.10252
0.10222
0.101941
0.101698
0.101505
0.101373
0.101315
0.101348
0.0520874
0.0546422
0.0571897
0.0597235
0.0622375
0.0647255
0.0671813
0.0695989
0.0719723
0.0742956
0.0765632
0.0787695
0.0809092
0.0829772
0.0849686
0.0868788
0.0887035
0.0904387
0.0920807
0.0936263
0.0950726
0.096417
0.0976577
0.0987929
0.0998215
0.100743
0.101557
0.102265
0.102867
0.103366
0.103764
0.104064
0.10427
0.104387
0.104421
0.104377
0.104263
0.104087
0.103859
0.103587
0.103284
0.102962
0.102632
0.102309
0.102009
0.101745
0.101534
0.101387
0.101321
0.101353
0.0520595
0.0546367
0.0572065
0.0597626
0.0622987
0.0648086
0.067286
0.0697249
0.0721192
0.0744629
0.0767504
0.078976
0.0811344
0.0832203
0.0852288
0.0871552
0.0889951
0.0907445
0.0923996
0.0939572
0.0954142
0.096768
0.0980166
0.0991583
0.100192
0.101117
0.101933
0.10264
0.103241
0.103735
0.104127
0.104419
0.104616
0.104721
0.10474
0.10468
0.104548
0.104352
0.104101
0.103805
0.103477
0.103127
0.102769
0.102419
0.102091
0.101801
0.101567
0.101402
0.101324
0.101353
0.0520368
0.0546407
0.0572371
0.0598197
0.0623821
0.064918
0.0674211
0.0698852
0.0723042
0.0746721
0.076983
0.0792314
0.0814116
0.0835184
0.0855468
0.087492
0.0893495
0.0911152
0.0927853
0.0943563
0.0958253
0.0971895
0.0984466
0.0995951
0.100634
0.101561
0.102378
0.103084
0.103681
0.10417
0.104554
0.104836
0.10502
0.105109
0.105111
0.105031
0.104876
0.104656
0.104378
0.104054
0.103695
0.103313
0.102923
0.10254
0.10218
0.101862
0.101601
0.101416
0.101324
0.101349
0.0520215
0.0546554
0.0572816
0.059894
0.0624859
0.0650509
0.0675827
0.0700751
0.0725216
0.0749164
0.0772535
0.079527
0.0817314
0.0838613
0.0859116
0.0878775
0.0897542
0.0915377
0.0932239
0.0948095
0.0962911
0.097666
0.098932
0.100087
0.10113
0.10206
0.102877
0.103581
0.104173
0.104655
0.105029
0.105298
0.105466
0.105538
0.105519
0.105415
0.105235
0.104986
0.104678
0.104321
0.103928
0.103511
0.103085
0.102667
0.102273
0.101922
0.101634
0.101426
0.10132
0.101341
0.052015
0.0546813
0.0573399
0.0599843
0.0626081
0.0652046
0.0677674
0.0702901
0.0727664
0.07519
0.0775551
0.0798556
0.0820858
0.0842404
0.0863139
0.0883016
0.0901986
0.0920007
0.0937038
0.0953043
0.0967989
0.0981847
0.0994594
0.100621
0.101668
0.1026
0.103415
0.104116
0.104701
0.105174
0.105536
0.105791
0.105941
0.105993
0.105951
0.105821
0.105612
0.105332
0.104991
0.104599
0.104169
0.103714
0.10325
0.102794
0.102363
0.101979
0.101662
0.101431
0.101311
0.101328
0.0520185
0.054719
0.0574116
0.0600898
0.062747
0.0653766
0.0679719
0.0705264
0.0730338
0.0754877
0.0778819
0.0802106
0.0824677
0.0846478
0.0867455
0.0887556
0.0906735
0.0924946
0.0942148
0.0958303
0.0973379
0.0987344
0.100017
0.101185
0.102235
0.103168
0.103981
0.104677
0.105255
0.105717
0.106065
0.106303
0.106435
0.106464
0.106396
0.106239
0.105999
0.105686
0.105309
0.10488
0.104411
0.103917
0.103413
0.102917
0.102449
0.102031
0.101684
0.101431
0.101297
0.101311
0.0520327
0.0547684
0.0574961
0.0602091
0.0629009
0.0655645
0.0681933
0.0707806
0.0733199
0.0758048
0.078229
0.0805864
0.0828709
0.085077
0.0871992
0.0892321
0.091171
0.0930111
0.0947484
0.0963788
0.097899
0.0993058
0.100597
0.101769
0.102822
0.103754
0.104565
0.105254
0.105823
0.106274
0.106607
0.106827
0.106937
0.106942
0.106848
0.106661
0.106389
0.106041
0.105627
0.105159
0.10465
0.104114
0.103569
0.103034
0.102528
0.102076
0.1017
0.101424
0.101277
0.101289
0.0520579
0.0548294
0.0575928
0.0603413
0.0630681
0.0657662
0.0684289
0.0710495
0.0736211
0.0761373
0.0785917
0.0809781
0.0832903
0.0855224
0.087669
0.0897247
0.0916843
0.0935433
0.0952973
0.0969422
0.0984745
0.0998909
0.101189
0.102366
0.10342
0.104351
0.105158
0.10584
0.106399
0.106836
0.107153
0.107354
0.107442
0.107421
0.107299
0.10708
0.106775
0.10639
0.105938
0.10543
0.10488
0.104303
0.103717
0.103142
0.102599
0.102112
0.101708
0.10141
0.101251
0.101263
0.0520941
0.0549017
0.0577009
0.060485
0.063247
0.0659798
0.0686765
0.0713303
0.0739343
0.0764818
0.0789663
0.0813815
0.0837211
0.0859791
0.0881498
0.0902278
0.0922079
0.0940853
0.0958554
0.0975142
0.0990579
0.100483
0.101787
0.102968
0.104023
0.104952
0.105753
0.106428
0.106975
0.107398
0.107698
0.107878
0.107942
0.107895
0.107743
0.107493
0.107152
0.106731
0.10624
0.105692